18
Lattice="9.99999982150825 0.0 0.0 0.0 9.99999982150825 0.0 0.0 0.0 9.99999982150825" Properties=species:S:1:pos:R:3:forces_eV_per_au:R:3:forces:R:3 closest_conformer=boat color="_JSON [0.8008710421978316, 0.6050051399546552, 0.17233124848619508, 0.9914599517332942]" relative_energy_eV=0.2477972018057244 energy=-1123.794317343726 free_energy=-1123.794317343726 pbc="T T T"
C        6.36180016       4.99999991       4.57754381       0.24653331      -0.00002263       0.00239755       0.24653331      -0.00002263       0.00239755
C        5.76710017       6.26449989       5.20434480       0.50763064       0.25750935      -0.00041472       0.50763064       0.25750935      -0.00041472
C        4.23290020       6.26449989       5.20434480      -0.50765429       0.25747773      -0.00036870      -0.50765429       0.25747773      -0.00036870
C        3.63819921       4.99999991       4.57754381      -0.24654797       0.00002185       0.00241118      -0.24654797       0.00002185       0.00241118
C        4.23290020       3.73549993       5.20434480      -0.50763964      -0.25747336      -0.00032344      -0.50763964      -0.25747336      -0.00032344
C        5.76710017       3.73549993       5.20434480       0.50767486      -0.25748595      -0.00036792       0.50767486      -0.25748595      -0.00036792
H        7.45779914       4.99999991       4.73304480      -0.18615892       0.00001825      -0.23360786      -0.18615892       0.00001825      -0.23360786
H        6.16650017       4.99999991       3.48794383       0.16840134       0.00002545       0.15137241       0.16840134       0.00002545       0.15137241
H        6.13490017       7.14699887       4.64634481       0.06066184      -0.13384160       0.28531018       0.06066184      -0.13384160       0.28531018
H        6.12210017       6.34429989       6.25004378       0.10184705       0.08390538      -0.24503744       0.10184705       0.08390538      -0.24503744
H        3.86510021       7.14699887       4.64634481      -0.06063253      -0.13396270       0.28537908      -0.06063253      -0.13396270       0.28537908
H        3.87789921       6.34429989       6.25004378      -0.10182031       0.08389253      -0.24517320      -0.10182031       0.08389253      -0.24517320
H        3.83349921       4.99999991       3.48794383      -0.16840186       0.00007688       0.15137807      -0.16840186       0.00007688       0.15137807
H        2.54220023       4.99999991       4.73304480       0.18617769       0.00006659      -0.23361583       0.18617769       0.00006659      -0.23361583
H        3.86510021       2.85300095       4.64634481      -0.06075877       0.13368554       0.28521942      -0.06075877       0.13368554       0.28521942
H        3.87789921       3.65569993       6.25004378      -0.10193447      -0.08388713      -0.24483716      -0.10193447      -0.08388713      -0.24483716
H        6.12210017       3.65569993       6.25004378       0.10189667      -0.08387273      -0.24503976       0.10189667      -0.08387273      -0.24503976
H        6.13490017       2.85300095       4.64634481       0.06072534       0.13386629       0.28531815       0.06072534       0.13386629       0.28531815
18
Lattice="9.99999982150825 0.0 0.0 0.0 9.99999982150825 0.0 0.0 0.0 9.99999982150825" Properties=species:S:1:pos:R:3:forces_eV_per_au:R:3:forces:R:3 closest_conformer=boat color="_JSON [0.7999740638610711, 0.6041699271613191, 0.17342029077157745, 0.9889472875331848]" relative_energy_eV=0.3948126896439135 energy=-1123.647301855888 free_energy=-1123.647301855888 pbc="T T T"
C        6.37010372       5.00997003       4.57818294       0.35975518      -0.08393418      -0.12524538       0.35975518      -0.08393418      -0.12524538
C        5.76193485       6.26117068       5.20030359       0.67629501       0.51153486       0.81808723       0.67629501       0.51153486       0.81808723
C        4.20325021       6.27412428       5.19451739       1.01080401      -0.42525918       0.75523919       1.01080401      -0.42525918       0.75523919
C        3.64289598       5.00002836       4.59460494      -0.27265006       0.21937526      -0.88432348      -0.27265006       0.21937526      -0.88432348
C        4.21677019       3.73437545       5.19710717       0.13553005       0.04070468       0.91401483       0.13553005       0.04070468       0.91401483
C        5.79926399       3.75862129       5.20146452      -0.46596308      -2.38251583      -0.40326905      -0.46596308      -2.38251583      -0.40326905
H        7.47745893       5.00152567       4.68179782      -0.35750032       0.13519426      -0.08569513      -0.35750032       0.13519426      -0.08569513
H        6.14890648       4.97501414       3.49742230       0.12772572       0.11380165       0.01652911       0.12772572       0.11380165       0.01652911
H        6.15350737       7.13712038       4.66676753      -0.03490015       0.13227683      -0.00950434      -0.03490015       0.13227683      -0.00950434
H        6.17590767       6.35758309       6.24690692      -0.43086444      -0.06585032      -0.63797400      -0.43086444      -0.06585032      -0.63797400
H        3.88351151       7.14160278       4.63217923      -0.45962557       0.38468974      -0.06475118      -0.45962557       0.38468974      -0.06475118
H        3.83385026       6.32415573       6.23577119       0.02051509       0.33381455      -0.17119022       0.02051509       0.33381455      -0.17119022
H        3.84713277       5.01024551       3.50973822      -0.29828345      -0.02509474      -0.02859041      -0.29828345      -0.02509474      -0.02859041
H        2.56606145       5.05196341       4.76272166      -0.38040885      -0.28060840      -0.32862067      -0.38040885      -0.28060840      -0.32862067
H        3.80319494       2.83496854       4.70559407       0.19163306       0.18971399       0.02072592       0.19163306       0.18971399       0.02072592
H        3.82343973       3.71662743       6.24444530       0.37626578      -0.24737098      -0.31389107       0.37626578      -0.24737098      -0.31389107
H        6.12515218       3.57526039       6.24484815       0.18360839       0.29702206      -0.27371296       0.18360839       0.29702206      -0.27371296
H        6.16765617       2.83564125       4.60562546      -0.38193609       1.15250599       0.80217159      -0.38193609       1.15250599       0.80217159
18
Lattice="9.99999982150825 0.0 0.0 0.0 9.99999982150825 0.0 0.0 0.0 9.99999982150825" Properties=species:S:1:pos:R:3:forces_eV_per_au:R:3:forces:R:3 closest_conformer=boat color="_JSON [0.7924535393586409, 0.5971442243342413, 0.18255036667110336, 0.9678314311287082]" relative_energy_eV=0.5894004793249223 energy=-1123.452714066207 free_energy=-1123.452714066207 pbc="T T T"
C        6.35799013       5.00971374       4.56608307       0.17710658      -0.49793141      -0.34772062       0.17710658      -0.49793141      -0.34772062
C        5.77269836       6.25928370       5.19106279      -0.47407697       0.34371073      -0.72210461      -0.47407697       0.34371073      -0.72210461
C        4.20092583       6.26831829       5.18214714       1.65255727       0.10375455       1.36309040       1.65255727       0.10375455       1.36309040
C        3.65046008       4.99502930       4.63010156       0.05491748       0.17786197      -2.99513798       0.05491748       0.17786197      -2.99513798
C        4.23362340       3.73470651       5.19875003      -0.00655117       0.39993278       0.98986880      -0.00655117       0.39993278       0.98986880
C        5.79261205       3.74995442       5.20473825      -0.83556302      -0.08227273       0.84189205      -0.83556302      -0.08227273       0.84189205
H        7.44141239       5.01220089       4.68356269       0.38551661       0.05073455       0.05554431       0.38551661       0.05073455       0.05554431
H        6.20064506       4.90054323       3.47351783      -0.13550614       0.41222008       0.18538708      -0.13550614       0.41222008       0.18538708
H        6.13705213       7.14775125       4.66151056       0.14852055       0.12329442       0.10609477       0.14852055       0.12329442       0.10609477
H        6.16917198       6.27265195       6.19420526       0.08549998       0.32253229       0.72653693       0.08549998       0.32253229       0.72653693
H        3.85838323       7.13410571       4.63276071      -0.36054091       0.34776561      -0.23972760      -0.36054091       0.34776561      -0.23972760
H        3.84233676       6.36239100       6.23471580       0.08929261       0.15353060      -0.36182903       0.08929261       0.15353060      -0.36182903
H        3.84005633       4.95335493       3.48806362      -0.55226396       0.31850286       1.23333607      -0.55226396       0.31850286       1.23333607
H        2.59883905       5.12624223       4.81316506      -1.01787300      -0.70691684      -0.29432575      -1.01787300      -0.70691684      -0.29432575
H        3.81306063       2.84708290       4.74359191      -0.07855851      -0.35762502      -0.42187175      -0.07855851      -0.35762502      -0.42187175
H        3.82475693       3.74775430       6.20770623       0.25392266      -0.44619747       0.73011745       0.25392266      -0.44619747       0.73011745
H        6.11366859       3.55828129       6.24959516       0.22342295       0.41098210      -0.26755465       0.22342295       0.41098210      -0.26755465
H        6.15230548       2.92063273       4.64472073       0.39017673      -1.07387934      -0.58159588       0.39017673      -1.07387934      -0.58159588
18
Lattice="9.99999982150825 0.0 0.0 0.0 9.99999982150825 0.0 0.0 0.0 9.99999982150825" Properties=species:S:1:pos:R:3:forces_eV_per_au:R:3:forces:R:3 closest_conformer=boat color="_JSON [0.7946325396532564, 0.5991812306720247, 0.1799050600641048, 0.9739524730647569]" relative_energy_eV=0.46233460939720317 energy=-1123.5797799361346 free_energy=-1123.5797799361346 pbc="T T T"
C        6.37022978       5.01550933       4.56050591      -0.81673149      -0.80507771       0.55920825      -0.81673149      -0.80507771       0.55920825
C        5.77587387       6.25230144       5.19176820      -0.04433045       0.28234158       1.15045656      -0.04433045       0.28234158       1.15045656
C        4.20539474       6.26103270       5.19920152       0.80359315       0.79492031       0.65321344       0.80359315       0.79492031       0.65321344
C        3.64764989       5.00216415       4.60147442      -0.48610999      -0.18353280      -0.88345162      -0.48610999      -0.18353280      -0.88345162
C        4.19922318       3.72846787       5.20805638       0.33366851      -0.19986933       1.50028677       0.33366851      -0.19986933       1.50028677
C        5.77959428       3.73762988       5.22428040       0.12391740      -0.75083386      -1.60474735       0.12391740      -0.75083386      -1.60474735
H        7.43655426       5.06241064       4.67761188       0.88615976      -0.19549023       0.13443064       0.88615976      -0.19549023       0.13443064
H        6.19840946       4.91334947       3.49548290      -0.22111050       0.30835292      -0.58404588      -0.22111050       0.30835292      -0.58404588
H        6.14094771       7.13426619       4.67674356       0.20532676       0.48139510      -0.08388610       0.20532676       0.48139510      -0.08388610
H        6.21796803       6.27513533       6.24556672      -0.67647575       0.21651697      -0.91407063      -0.67647575       0.21651697      -0.91407063
H        3.82833974       7.11795670       4.61709967       0.10420553      -0.01243463       0.03092600       0.10420553      -0.01243463       0.03092600
H        3.81942309       6.42982860       6.22607669       0.15103740      -0.18786768      -0.16352216       0.15103740      -0.18786768      -0.16352216
H        3.86021016       5.04812003       3.51341054      -0.29655849      -0.20032956       0.14334646      -0.29655849      -0.20032956       0.14334646
H        2.56914720       5.04551475       4.76047176      -0.39247684      -0.20777110      -0.35262037      -0.39247684      -0.20777110      -0.35262037
H        3.82315637       2.79913959       4.74392109       0.01004273       0.32635707      -0.14571676       0.01004273       0.32635707      -0.14571676
H        3.77070380       3.70650675       6.26325458       0.66103551      -0.14646881      -0.72890029       0.66103551      -0.14646881      -0.72890029
H        6.18655516       3.58204753       6.21519992       0.09559490       0.03070720       0.53281125       0.09559490       0.03070720       0.53281125
H        6.17061767       2.88861745       4.57987223      -0.44078838       0.44908482       0.75628151      -0.44078838       0.44908482       0.75628151
18
Lattice="9.99999982150825 0.0 0.0 0.0 9.99999982150825 0.0 0.0 0.0 9.99999982150825" Properties=species:S:1:pos:R:3:forces_eV_per_au:R:3:forces:R:3 closest_conformer=boat color="_JSON [0.7904316018783625, 0.5952947800050599, 0.1850063568090974, 0.9622381552924144]" relative_energy_eV=0.5185587707401282 energy=-1123.5235557747917 free_energy=-1123.5235557747917 pbc="T T T"
C        6.36993065       5.01442540       4.54845053      -0.64015558      -0.18357959       1.67918233      -0.64015558      -0.18357959       1.67918233
C        5.77147146       6.26118680       5.23397632       0.42848103       0.49007335      -0.63115209       0.42848103       0.49007335      -0.63115209
C        4.20297720       6.27262356       5.20337930       0.80516075       0.73857561       0.23750951       0.80516075       0.73857561       0.23750951
C        3.62562866       5.02874459       4.60252668       0.10795214      -1.66874031      -1.01995277       0.10795214      -1.66874031      -1.01995277
C        4.21994658       3.72999542       5.20089401      -0.56875964      -0.67986447       0.16564126      -0.56875964      -0.67986447       0.16564126
C        5.76750968       3.74651950       5.21107591       0.82556091      -0.21771125       0.53420607       0.82556091      -0.21771125       0.53420607
H        7.44026090       5.10282211       4.69232249       0.57143436      -0.41690001      -0.03970169       0.57143436      -0.41690001      -0.03970169
H        6.18511162       4.93572244       3.49061429      -0.20805804       0.38505844      -0.74257419      -0.20805804       0.38505844      -0.74257419
H        6.19851833       7.13550928       4.68893940      -0.36507017      -0.08057760       0.35132556      -0.36507017      -0.08057760       0.35132556
H        6.17742833       6.34099897       6.28253031      -0.39899742      -0.20915513      -0.69338050      -0.39899742      -0.20915513      -0.69338050
H        3.84505931       7.08737508       4.54885042       0.05893303       0.24957698       0.57776673       0.05893303       0.24957698       0.57776673
H        3.89798369       6.41791394       6.25169650      -0.47190644       0.12742799      -0.21987303      -0.47190644       0.12742799      -0.21987303
H        3.79966324       5.04241687       3.50593307       0.04690361       0.01431410       0.18072156       0.04690361       0.01431410       0.18072156
H        2.54710850       4.96867789       4.69501361      -0.54717652       0.21828743       0.16080682      -0.54717652       0.21828743       0.16080682
H        3.85480174       2.73749074       4.74355839       0.24299342       1.46495776       0.14864884       0.24299342       1.46495776       0.14864884
H        3.79875762       3.68879052       6.21833548       0.29238919      -0.08612656       0.20725791       0.29238919      -0.08612656       0.20725791
H        6.19471450       3.59821086       6.25297635      -0.44471986       0.24244783      -0.84515041      -0.44471986       0.24244783      -0.84515041
H        6.10312640       2.89057442       4.62892532       0.26503523      -0.38806483      -0.05128168       0.26503523      -0.38806483      -0.05128168
18
Lattice="9.99999982150825 0.0 0.0 0.0 9.99999982150825 0.0 0.0 0.0 9.99999982150825" Properties=species:S:1:pos:R:3:forces_eV_per_au:R:3:forces:R:3 closest_conformer=boat color="_JSON [0.7847910979031762, 0.5901797291062169, 0.19185919230878068, 0.9467289027271977]" relative_energy_eV=0.48464399851604867 energy=-1123.5574705470158 free_energy=-1123.5574705470158 pbc="T T T"
C        6.37452464       5.02278249       4.55289649      -0.21706204      -0.44652631       0.20284641      -0.21706204      -0.44652631       0.20284641
C        5.77981882       6.25958025       5.22873052      -0.18281392      -0.05028409      -0.58056975      -0.18281392      -0.05028409      -0.58056975
C        4.21937620       6.26827605       5.21045232       0.55976490       0.01362196      -0.77881260       0.55976490       0.01362196      -0.77881260
C        3.63259143       5.02879139       4.58279141       0.11307660      -1.76491474      -0.71047808       0.11307660      -1.76491474      -0.71047808
C        4.21354551       3.71315742       5.18819594       0.61691024       1.58677766       1.40381050       0.61691024       1.58677766       1.40381050
C        5.78501045       3.75987465       5.21216122      -0.44974585      -0.68872835      -1.08468646      -0.44974585      -0.68872835      -1.08468646
H        7.46366343       5.03055469       4.65960925       0.20636960      -0.03924455       0.13336081       0.20636960      -0.03924455       0.13336081
H        6.21331373       5.00646103       3.45587215      -0.22801880       0.08432421       0.26479123      -0.22801880       0.08432421       0.26479123
H        6.14944743       7.12361015       4.68693333       0.19025289       0.58271533       0.05095798       0.19025289       0.58271533       0.05095798
H        6.15845623       6.30091820       6.25561078       0.00370625       0.10155009       0.12353302       0.00370625       0.10155009       0.12353302
H        3.83303197       7.06774893       4.56964336       0.11319924       0.54466815       0.37255825       0.11319924       0.54466815       0.37255825
H        3.86495736       6.38403207       6.21518736      -0.47674552       0.24803252       0.77635771      -0.47674552       0.24803252       0.77635771
H        3.79013621       5.07765347       3.46293916      -0.34613605      -0.20001126       0.85201936      -0.34613605      -0.20001126       0.85201936
H        2.57853537       4.90891909       4.83013183      -0.54707367       0.56624845      -0.49733903      -0.54707367       0.56624845      -0.49733903
H        3.84937549       2.79915353       4.74656213      -0.29304380      -0.33604961      -0.48102718      -0.29304380      -0.33604961      -0.48102718
H        3.80766026       3.73598142       6.24896894       0.49298898      -0.29089641      -0.73120297       0.49298898      -0.29089641      -0.73120297
H        6.14288818       3.64051779       6.22155379       0.29624893       0.13197678       0.69062762       0.29624893       0.13197678       0.69062762
H        6.14366570       2.87198579       4.67175841       0.14812177      -0.04326010      -0.00674683       0.14812177      -0.04326010      -0.00674683
18
Lattice="9.99999982150825 0.0 0.0 0.0 9.99999982150825 0.0 0.0 0.0 9.99999982150825" Properties=species:S:1:pos:R:3:forces_eV_per_au:R:3:forces:R:3 closest_conformer=boat color="_JSON [0.7754908390063577, 0.5813969747879841, 0.20314675621035005, 0.9204153368431557]" relative_energy_eV=0.4821717082352279 energy=-1123.5599428372966 free_energy=-1123.5599428372966 pbc="T T T"
C        6.37243697       5.01129703       4.54807431      -0.26460997      -0.00455137      -0.34951294      -0.26460997      -0.00455137      -0.34951294
C        5.79229000       6.26921087       5.22898462      -0.51395401       0.09911114      -0.84393402      -0.51395401       0.09911114      -0.84393402
C        4.22902016       6.25027519       5.20510995       0.40083884       0.43000286       0.10785469       0.40083884       0.43000286       0.10785469
C        3.62563073       5.03530818       4.58555551       0.45507677      -2.01787941      -0.54104495       0.45507677      -2.01787941      -0.54104495
C        4.22341098       3.71353711       5.20245947       0.32562739       1.69468814       0.66743241       0.32562739       1.69468814       0.66743241
C        5.78661749       3.76529144       5.20097015      -0.70472909      -0.65823301      -0.80337846      -0.70472909      -0.65823301      -0.80337846
H        7.44178294       4.99142514       4.69100309       0.75001522       0.04069825       0.07680297       0.75001522       0.04069825       0.07680297
H        6.24412405       4.93355812       3.43085045      -0.22312008       0.48813525       0.74521060      -0.22312008       0.48813525       0.74521060
H        6.14451919       7.20432129       4.73350954      -0.00140074      -0.44097042       0.33083156      -0.00140074      -0.44097042       0.33083156
H        6.09254962       6.29493611       6.27408792       0.45223005      -0.01188184       0.25832619       0.45223005      -0.01188184       0.25832619
H        3.92164836       7.06441939       4.56718293      -0.42108731       0.81851429       0.06836203      -0.42108731       0.81851429       0.06836203
H        3.78266793       6.35223721       6.20156204       0.20865453       0.37490772       0.16521703       0.20865453       0.37490772       0.16521703
H        3.76090311       5.08879820       3.48710034      -0.04718951      -0.31180565       0.18331786      -0.04718951      -0.31180565       0.18331786
H        2.56846160       4.99188529       4.78800707      -0.80047286       0.19619883      -0.11838413      -0.80047286       0.19619883      -0.11838413
H        3.87654341       2.80184021       4.75065543      -0.38080583      -0.43840111      -0.53993655      -0.38080583      -0.43840111      -0.53993655
H        3.84650602       3.69847559       6.24759503       0.16419759      -0.10315497      -0.19137775       0.16419759      -0.10315497      -0.19137775
H        6.17556258       3.65956653       6.19464991       0.26202369       0.00660028       0.91965429       0.26202369       0.00660028       0.91965429
H        6.11532326       2.87361549       4.66264065       0.33870530      -0.16197821      -0.13544057       0.33870530      -0.16197821      -0.13544057
18
Lattice="9.99999982150825 0.0 0.0 0.0 9.99999982150825 0.0 0.0 0.0 9.99999982150825" Properties=species:S:1:pos:R:3:forces_eV_per_au:R:3:forces:R:3 closest_conformer=boat color="_JSON [0.7856147271007512, 0.5910327707755667, 0.1908620755174856, 0.9492191175383223]" relative_energy_eV=0.5459611785204288 energy=-1123.4961533670114 free_energy=-1123.4961533670114 pbc="T T T"
C        6.34487178       5.00201289       4.51845339       0.00988923       0.28455890       0.99754046       0.00988923       0.28455890       0.99754046
C        5.76466919       6.25610480       5.25115973       0.34941472       0.09233037      -1.38134471       0.34941472       0.09233037      -1.38134471
C        4.22666993       6.25332222       5.22825496       0.05514271       0.65666463      -0.27966686       0.05514271       0.65666463      -0.27966686
C        3.62656848       5.03810445       4.59299371      -0.38005121      -1.78897204      -1.05593536      -0.38005121      -1.78897204      -1.05593536
C        4.19157234       3.70526484       5.19734528       1.23907118       1.06729063       0.31599218       1.23907118       1.06729063       0.31599218
C        5.78802397       3.74164963       5.20523583      -0.91116656      -0.17411691      -1.63885638      -0.91116656      -0.17411691      -1.63885638
H        7.41064096       4.98717989       4.68875024       0.80212659       0.09621274       0.14375732       0.80212659       0.09621274       0.14375732
H        6.28443064       4.95415233       3.42382380      -0.61582343       0.29200481      -0.03849276      -0.61582343       0.29200481      -0.03849276
H        6.10703564       7.20888455       4.75872024       0.05986788      -0.68651077       0.50412057       0.05986788      -0.68651077       0.50412057
H        6.13774406       6.23007163       6.27097381       0.24534392       0.08669683       0.34948902       0.24534392       0.08669683       0.34948902
H        3.95567933       7.11868807       4.61129257      -0.48262049       0.15457832       0.25302483      -0.48262049       0.15457832       0.25302483
H        3.76444395       6.34726230       6.20956020       0.13488444       0.36622356       0.44061432       0.13488444       0.36622356       0.44061432
H        3.80983588       5.06821808       3.47411487      -0.29660529      -0.17837131       0.88418489      -0.29660529      -0.17837131       0.88418489
H        2.53646261       5.02519969       4.77753141       0.09501229       0.12551689      -0.37077853       0.09501229       0.12551689      -0.37077853
H        3.88093245       2.78678099       4.71273756      -0.45777643      -0.10710599      -0.39525389      -0.45777643      -0.10710599      -0.39525389
H        3.85639092       3.64768600       6.24448871      -0.09554374      -0.06354353      -0.01901099      -0.09554374      -0.06354353      -0.01901099
H        6.13114686       3.74554474       6.22826589       0.39834024      -0.34552670       0.49317101       0.39834024      -0.34552670       0.49317101
H        6.18287939       2.88387128       4.60629618      -0.14950656       0.12206981       0.79744513      -0.14950656       0.12206981       0.79744513
18
Lattice="9.99999982150825 0.0 0.0 0.0 9.99999982150825 0.0 0.0 0.0 9.99999982150825" Properties=species:S:1:pos:R:3:forces_eV_per_au:R:3:forces:R:3 closest_conformer=boat color="_JSON [0.792912625787882, 0.5978064506807299, 0.18200075610603572, 0.9696162716496745]" relative_energy_eV=0.5694040578343902 energy=-1123.4727104876974 free_energy=-1123.4727104876974 pbc="T T T"
C        6.36317014       5.00494764       4.52315646      -0.33368420      -0.17498620       1.36515216      -0.33368420      -0.17498620       1.36515216
C        5.77403020       6.25510875       5.23857403       0.32973395      -0.63817300      -0.74334243       0.32973395      -0.63817300      -0.74334243
C        4.21953205       6.24830865       5.20507236       0.54533407       1.66602805      -0.66157467       0.54533407       1.66602805      -0.66157467
C        3.61077137       5.02967423       4.59133133      -0.08843849      -1.60530220      -1.01546182      -0.08843849      -1.60530220      -1.01546182
C        4.18924660       3.72297082       5.20532971       1.02317745       0.97741335       0.34978907       1.02317745       0.97741335       0.34978907
C        5.76833574       3.75573908       5.20864360      -0.64694843       0.15787910      -0.93026215      -0.64694843       0.15787910      -0.93026215
H        7.43449839       4.92702131       4.67347635       0.58569421       0.28556600       0.11213506       0.58569421       0.28556600       0.11213506
H        6.24169205       4.89995779       3.45068830      -0.43500751       0.50648855      -0.50876809      -0.43500751       0.50648855      -0.50876809
H        6.17812582       7.17166313       4.81384841      -0.01460952       0.33500857      -0.30465644      -0.01460952       0.33500857      -0.30465644
H        6.15721624       6.26066249       6.25977339       0.00112229      -0.22920665       0.37388519       0.00112229      -0.22920665       0.37388519
H        3.94921160       7.15970587       4.61656181      -0.26833884      -0.47057770       0.27054793      -0.26833884      -0.47057770       0.27054793
H        3.81465643       6.40678658       6.19068178      -0.20961921       0.08916869       0.75275936      -0.20961921       0.08916869       0.75275936
H        3.82973096       5.00442121       3.48216961      -0.26380444       0.04807989       0.75876957      -0.26380444       0.04807989       0.75876957
H        2.51609029       5.01277295       4.70125128       0.00012907       0.17542457      -0.08406659       0.00012907       0.17542457      -0.08406659
H        3.87199627       2.82395805       4.71873788      -0.55198140      -0.57032519      -0.64131515      -0.55198140      -0.57032519      -0.64131515
H        3.90881746       3.60353744       6.25858669      -0.41570393       0.18358885       0.06851347      -0.41570393       0.18358885       0.06851347
H        6.02692437       3.79924456       6.27503549       0.69815581      -0.59227007      -0.20392293       0.69815581      -0.59227007      -0.20392293
H        6.14595241       2.91351785       4.58707991       0.04478913      -0.14380437       1.04181846       0.04478913      -0.14380437       1.04181846
18
Lattice="9.99999982150825 0.0 0.0 0.0 9.99999982150825 0.0 0.0 0.0 9.99999982150825" Properties=species:S:1:pos:R:3:forces_eV_per_au:R:3:forces:R:3 closest_conformer=boat color="_JSON [0.7879527041761891, 0.5931328871863161, 0.1880207077052918, 0.9556049241147345]" relative_energy_eV=0.5334681600738804 energy=-1123.508646385458 free_energy=-1123.508646385458 pbc="T T T"
C        6.37588223       5.00701005       4.52314300       0.17972397      -0.21912869       1.75496534       0.17972397      -0.21912869       1.75496534
C        5.78771050       6.25380435       5.22913239      -0.41069902      -0.57256590       0.35552006      -0.41069902      -0.57256590       0.35552006
C        4.20570072       6.23287261       5.22006480       0.55507392       2.43622977      -0.70501731       0.55507392       2.43622977      -0.70501731
C        3.62603502       5.02089718       4.57532302      -0.50602935      -1.38470283      -0.55358062      -0.50602935      -1.38470283      -0.55358062
C        4.19268294       3.71636663       5.20109160       0.68290943       0.58248625       1.09390824       0.68290943       0.58248625       1.09390824
C        5.77694002       3.73386090       5.19560764      -0.62043985       0.51906125      -1.30297003      -0.62043985       0.51906125      -1.30297003