18
Lattice="9.99999982150825 0.0 0.0 0.0 9.99999982150825 0.0 0.0 0.0 9.99999982150825" Properties=species:S:1:pos:R:3:forces_eV_per_au:R:3:forces:R:3 closest_conformer=chair color="_JSON [0.13334224247843907, 0.4705947193978578, 0.7097946500843558, 0.9999757952699937]" relative_energy_eV=0.0 energy=-1124.0421145455318 free_energy=-1124.0421145455318 pbc="T T T"
C        6.44250600       5.00420191       4.74496192      -0.07650035       0.00224560       0.78972411      -0.07650035       0.00224560       0.78972411
C        5.71753801       6.25134489       5.25501391      -0.02663997      -0.05804368      -0.78524190      -0.02663997      -0.05804368      -0.78524190
C        4.27509103       6.24712889       4.74497392       0.02736605      -0.05818072       0.78696865       0.02736605      -0.05818072       0.78696865
C        3.55752705       4.99575791       5.25501391       0.07516517       0.00069445      -0.78820664       0.07516517       0.00069445      -0.78820664
C        4.28244703       3.74869693       4.74499492       0.02780468       0.05613824       0.78539000       0.02780468       0.05613824       0.78539000
C        5.72490001       3.75291493       5.25503491      -0.02713697       0.05673525      -0.78817065      -0.02713697       0.05673525      -0.78817065
H        6.44252700       5.00427791       3.65503193       0.15677327       0.00002854      -0.37390936       0.15677327       0.00002854      -0.37390936
H        7.47015698       5.00723291       5.10831591       0.41533112       0.00130381      -0.08949059       0.41533112       0.00130381      -0.08949059
H        5.71757501       6.25127189       6.34502489       0.07797127       0.13582752       0.37129275       0.07797127       0.13582752       0.37129275
H        6.22879800       7.14284487       4.89174091       0.20043575       0.35335828       0.09219822       0.20043575       0.35335828       0.09219822
H        6.24136000       2.86443695       4.89169591       0.20234993      -0.35216014       0.09227638       0.20234993      -0.35216014       0.09227638
H        5.72487301       3.75283593       6.34496689       0.07916170      -0.13477311       0.37381372       0.07916170      -0.13477311       0.37381372
H        3.75862504       7.13560587       5.10831291      -0.20242604       0.35185958      -0.09246870      -0.20242604       0.35185958      -0.09246870
H        4.27516003       6.24712289       3.65501093      -0.07931879       0.13522434      -0.37275751      -0.07931879       0.13522434      -0.37275751
H        3.55745805       4.99576391       6.34497689      -0.15666529      -0.00035430       0.37286087      -0.15666529      -0.00035430       0.37286087
H        2.52987607       4.99272791       4.89165991      -0.41541545      -0.00116111       0.08947722      -0.41541545      -0.00116111       0.08947722
H        4.28239303       3.74863393       3.65499993      -0.07786560      -0.13531227      -0.37189825      -0.07786560      -0.13531227      -0.37189825
H        3.77118704       2.85719795       5.10826791      -0.20039075      -0.35343078      -0.09185806      -0.20039075      -0.35343078      -0.09185806
18
Lattice="9.99999982150825 0.0 0.0 0.0 9.99999982150825 0.0 0.0 0.0 9.99999982150825" Properties=species:S:1:pos:R:3:forces_eV_per_au:R:3:forces:R:3 closest_conformer=chair color="_JSON [0.13335055605986307, 0.4706022603708289, 0.7097853327352802, 0.999949716961617]" relative_energy_eV=0.09068112039039988 energy=-1123.9514334251414 free_energy=-1123.9514334251414 pbc="T T T"
C        6.44188056       4.98143621       4.75052831       0.18353409       0.36316061       0.28767148       0.18353409       0.36316061       0.28767148
C        5.71265283       6.26046813       5.24056260       1.27009951       0.44750256      -0.23137486       1.27009951       0.44750256      -0.23137486
C        4.28255351       6.24402485       4.74791367      -0.91791031       0.50079022       0.01133754      -0.91791031       0.50079022       0.01133754
C        3.55169090       4.96589300       5.27015676      -0.22674456       1.00914154      -1.86531580      -0.22674456       1.00914154      -1.86531580
C        4.27464832       3.72752471       4.75529070       0.06231634       0.07824664       1.12367261       0.06231634       0.07824664       1.12367261
C        5.72475449       3.72304997       5.25275795      -0.54916424       0.81024537      -0.78866661      -0.54916424       0.81024537      -0.78866661
H        6.47730474       4.99996552       3.64871660       0.06085621      -0.07803889       0.00168510       0.06085621      -0.07803889       0.00168510
H        7.47508200       4.97114177       5.12456258       0.12957126       0.08008755      -0.11142261       0.12957126       0.08008755      -0.11142261
H        5.75777885       6.28677356       6.36088991      -0.11785371       0.06930691      -0.53052040      -0.11785371       0.06930691      -0.53052040
H        6.26172987       7.18774070       4.86496232      -0.50690584      -0.86907915       0.41254790      -0.50690584      -0.86907915       0.41254790
H        6.22082881       2.83697851       4.90379073       0.51214447      -0.71872515      -0.03926769       0.51214447      -0.71872515      -0.03926769
H        5.72637491       3.77657223       6.32968611       0.08558225      -0.33084313       0.79566335       0.08558225      -0.33084313       0.79566335
H        3.75719436       7.15190303       5.13020009       0.09663234      -0.33483656      -0.23784093       0.09663234      -0.33483656      -0.23784093
H        4.24751123       6.30938728       3.62105567       0.02799854      -0.16949561       0.76415269       0.02799854      -0.16949561       0.76415269
H        3.57599890       5.02998680       6.34693041      -0.26087750      -0.22213560       0.71385368      -0.26087750      -0.22213560       0.71385368
H        2.50296852       4.99123641       4.88170590       0.38776761      -0.08223056       0.49057574       0.38776761      -0.08223056       0.49057574
H        4.27700565       3.70510419       3.68243509      -0.10203963       0.05419294      -0.96484091      -0.10203963       0.05419294      -0.96484091
H        3.73203993       2.85081154       5.08785300      -0.13500708      -0.60729020       0.16808973      -0.13500708      -0.60729020       0.16808973
18
Lattice="9.99999982150825 0.0 0.0 0.0 9.99999982150825 0.0 0.0 0.0 9.99999982150825" Properties=species:S:1:pos:R:3:forces_eV_per_au:R:3:forces:R:3 closest_conformer=chair color="_JSON [0.13333476782128348, 0.4705887908607395, 0.7098026469085296, 0.9999972471180589]" relative_energy_eV=0.14747250303025794 energy=-1123.8946420425016 free_energy=-1123.8946420425016 pbc="T T T"
C        6.43492122       4.99961527       4.75844231       0.36997686       0.67058304      -0.53469330       0.36997686       0.67058304      -0.53469330
C        5.69283610       6.28274400       5.24794538       0.38923956      -1.99307803       0.26649690       0.38923956      -1.99307803       0.26649690
C        4.27492407       6.26130958       4.73358638      -0.76468799       0.06801313       1.21285004      -0.76468799       0.06801313       1.21285004
C        3.54787688       4.98570994       5.25799987      -0.22552740       0.94956985      -0.09252552      -0.22552740       0.94956985      -0.09252552
C        4.26796470       3.73751023       4.76252854       0.25976729      -0.51015418       0.60635431       0.25976729      -0.51015418       0.60635431
C        5.72945320       3.73396558       5.24219651      -0.02137795       0.47355761      -0.69295293      -0.02137795       0.47355761      -0.69295293
H        6.44391117       4.99295664       3.63467143       0.07591105       0.03436357       0.53020261       0.07591105       0.03436357       0.53020261
H        7.49939492       5.05615715       5.08193534      -0.36446930      -0.20919524      -0.07345770      -0.36446930      -0.20919524      -0.07345770
H        5.71100707       6.17530908       6.36006520      -0.09138652       0.61743294      -0.36369977      -0.09138652       0.61743294      -0.36369977
H        6.23143688       7.13729538       4.91236812       0.55815616       1.06762719      -0.06627250       0.55815616       1.06762719      -0.06627250
H        6.29010030       2.87330857       4.88368510      -0.02001784      -0.46548589      -0.06676024      -0.02001784      -0.46548589      -0.06676024
H        5.73323546       3.71848956       6.31551754       0.12061508      -0.13361226       0.99411498       0.12061508      -0.13361226       0.99411498
H        3.73680173       7.14841202       5.12391978       0.00216718      -0.10473646      -0.28695105       0.00216718      -0.10473646      -0.28695105
H        4.24222788       6.28138544       3.64735449       0.02178933       0.08613298      -0.45073598       0.02178933       0.08613298      -0.45073598
H        3.60750124       5.04383741       6.39443525      -0.49355385      -0.22046798      -1.02097170      -0.49355385      -0.22046798      -1.02097170
H        2.49536259       5.06391709       4.86638419       0.53379393      -0.39799083       0.67417256       0.53379393      -0.39799083       0.67417256
H        4.29334610       3.68962923       3.68258075      -0.23014484       0.11835713      -0.72975801      -0.23014484       0.11835713      -0.72975801
H        3.76769689       2.81844623       5.09438222      -0.12025075      -0.05091710       0.09458754      -0.12025075      -0.05091710       0.09458754
18
Lattice="9.99999982150825 0.0 0.0 0.0 9.99999982150825 0.0 0.0 0.0 9.99999982150825" Properties=species:S:1:pos:R:3:forces_eV_per_au:R:3:forces:R:3 closest_conformer=chair color="_JSON [0.133340506234071, 0.47059025427215007, 0.7097978868798079, 0.9999880130214481]" relative_energy_eV=0.14320480564174431 energy=-1123.89890973989 free_energy=-1123.89890973989 pbc="T T T"
C        6.45143156       5.00929761       4.75644601       0.65438149       0.13062284      -0.47785958       0.65438149       0.13062284      -0.47785958
C        5.71832495       6.27779350       5.22375069       0.54702791      -0.00576956      -0.46703369       0.54702791      -0.00576956      -0.46703369
C        4.27334335       6.27342563       4.74944092      -1.22378880       0.41343724      -0.02796023      -1.22378880       0.41343724      -0.02796023
C        3.56936324       4.99529495       5.26917443      -0.20528305       0.12801703      -0.00097291      -0.20528305       0.12801703      -0.00097291
C        4.29299551       3.74017160       4.78317185       0.08678836      -0.09565352      -1.16566670       0.08678836      -0.09565352      -1.16566670
C        5.75146229       3.75011813       5.24128115       0.23761416      -1.07761618      -1.15197814       0.23761416      -1.07761618      -1.15197814
H        6.40771235       4.96538638       3.64212605       0.42551063       0.18011066       0.31800972       0.42551063       0.18011066       0.31800972
H        7.52081227       5.01993045       5.10545663      -0.62069824       0.03261753      -0.40357552      -0.62069824       0.03261753      -0.40357552
H        5.71409212       6.23344998       6.31690762      -0.01302907       0.30135720       0.33891948      -0.01302907       0.30135720       0.33891948
H        6.27585953       7.19106426       4.91733938      -0.26351648      -0.30402009       0.09365372      -0.26351648      -0.30402009       0.09365372
H        6.28805773       2.81159200       4.82443640      -0.61015826       1.17077625       0.91580252      -0.61015826       1.17077625       0.91580252
H        5.69921029       3.77386681       6.31976695       0.43662500      -0.43527954       0.79375174       0.43662500      -0.43527954       0.79375174
H        3.73582382       7.18425487       5.14146486       0.32700807      -0.59725235      -0.26620688       0.32700807      -0.59725235      -0.26620688
H        4.12292044       6.28960949       3.63742641       0.51683699       0.12148565       0.49664843       0.51683699       0.12148565       0.49664843
H        3.60235997       5.02372451       6.36994668      -0.11465886      -0.07062975       0.10029231      -0.11465886      -0.07062975       0.10029231
H        2.50513819       4.98290572       4.97752889       0.10146833       0.02099537       0.00582972       0.10146833       0.02099537       0.00582972
H        4.24683747       3.67766871       3.66559473       0.12360707       0.32221939       0.32000438       0.12360707       0.32221939       0.32000438
H        3.82425332       2.80044378       5.05873877      -0.40573525      -0.23541792       0.57834215      -0.40573525      -0.23541792       0.57834215
18
Lattice="9.99999982150825 0.0 0.0 0.0 9.99999982150825 0.0 0.0 0.0 9.99999982150825" Properties=species:S:1:pos:R:3:forces_eV_per_au:R:3:forces:R:3 closest_conformer=chair color="_JSON [0.1333356274991819, 0.47058959142678436, 0.7098016741528547, 0.9999945017661185]" relative_energy_eV=0.17163076962606283 energy=-1123.8704837759058 free_energy=-1123.8704837759058 pbc="T T T"
C        6.45189027       4.98275150       4.73855764       0.11960592       1.39927430      -0.33889865       0.11960592       1.39927430      -0.33889865
C        5.72289550       6.27784083       5.21637416      -0.18296921      -0.55592727      -0.00313957      -0.18296921      -0.55592727      -0.00313957
C        4.25773415       6.25992088       4.73864033       0.08345184       0.78665164       0.52867872       0.08345184       0.78665164       0.52867872
C        3.58721284       4.99253546       5.25139363      -1.57014390      -0.65065751       0.41411293      -1.57014390      -0.65065751       0.41411293
C        4.31117662       3.69708491       4.75342227      -0.85473548       1.09182924       1.35725476      -0.85473548       1.09182924       1.35725476
C        5.73807893       3.73679439       5.24898672       0.61784380      -0.42084176      -0.54347387       0.61784380      -0.42084176      -0.54347387
H        6.46211319       4.99818957       3.59428937       0.14254864      -0.14485981       1.13839938       0.14254864      -0.14485981       1.13839938
H        7.48873622       5.10578451       5.11167495      -0.09855193      -0.55797027      -0.27399269      -0.09855193      -0.55797027      -0.27399269
H        5.66293097       6.25051016       6.34128372       0.31442509       0.20748545      -0.64549499       0.31442509       0.20748545      -0.64549499
H        6.28387267       7.17749035       4.89614153      -0.22937120      -0.16531705       0.11909427      -0.22937120      -0.16531705       0.11909427
H        6.28927691       2.86708172       4.87736225       0.07045723      -0.32709574       0.07916427       0.07045723      -0.32709574       0.07916427
H        5.73329065       3.67755615       6.33961790       0.17519317       0.11105752       0.31070548       0.17519317       0.11105752       0.31070548
H        3.77308987       7.18991528       5.12008383      -0.09190151      -0.47994037      -0.07251488      -0.09190151      -0.47994037      -0.07251488
H        4.13632342       6.30555464       3.64528666       0.31750142      -0.03440727      -0.09928443       0.31750142      -0.03440727      -0.09928443
H        3.57090189       4.93594694       6.37183758       0.13654615       0.31229879      -0.47179589       0.13654615       0.31229879      -0.47179589
H        2.48100013       5.01552412       4.97238353       1.03600082      -0.24061026       0.07376701       1.03600082      -0.24061026       0.07376701
H        4.27540392       3.72549989       3.69986391       0.07018675      -0.18495128      -1.70549860       0.07018675      -0.18495128      -1.70549860
H        3.77407026       2.80401708       5.08279842      -0.05608707      -0.14601809       0.13291652      -0.05608707      -0.14601809       0.13291652
18
Lattice="9.99999982150825 0.0 0.0 0.0 9.99999982150825 0.0 0.0 0.0 9.99999982150825" Properties=species:S:1:pos:R:3:forces_eV_per_au:R:3:forces:R:3 closest_conformer=chair color="_JSON [0.1333336344361219, 0.4705884027461674, 0.7098036313077816, 0.9999993030580477]" relative_energy_eV=0.23664869783601716 energy=-1123.8054658476958 free_energy=-1123.8054658476958 pbc="T T T"
C        6.45511242       5.00661752       4.76267011      -0.03658371       1.34429203      -0.03009836      -0.03658371       1.34429203      -0.03009836
C        5.70130081       6.30471030       5.22883443       0.79145446      -1.17617660      -0.37743177       0.79145446      -1.17617660      -0.37743177
C        4.27647211       6.27721585       4.75725970      -1.39348469       0.50206960       0.50209634      -1.39348469       0.50206960       0.50209634
C        3.57313635       5.01034765       5.26880642      -0.52308245      -1.31533498      -0.32456064      -0.52308245      -1.31533498      -0.32456064
C        4.30590930       3.72792263       4.75498949      -0.22642266       1.13637412      -0.47822339      -0.22642266       1.13637412      -0.47822339
C        5.75052602       3.76035733       5.26495668      -0.38106320      -0.45331788       0.29289904      -0.38106320      -0.45331788       0.29289904
H        6.47253619       5.01603653       3.66444928      -0.04429882      -0.25782688      -0.19064370      -0.04429882      -0.25782688      -0.19064370
H        7.50456088       5.11053852       5.06164574       0.12091487      -0.29340632       0.23535184       0.12091487      -0.29340632       0.23535184
H        5.76936644       6.19024277       6.29395648      -0.28879042       0.47143722       1.10167631      -0.28879042       0.47143722       1.10167631
H        6.23350006       7.20699625       4.95441765       0.26371934       0.37183577      -0.25790941       0.26371934       0.37183577      -0.25790941
H        6.23568186       2.89028593       4.86136327       0.62771607      -0.74326890      -0.18073184       0.62771607      -0.74326890      -0.18073184
H        5.72475605       3.59582029       6.39037337       0.23052537       0.56390154      -0.89738674       0.23052537       0.56390154      -0.89738674
H        3.67342139       7.17291508       5.05628775       0.48815479      -0.30644259       0.16807841       0.48815479      -0.30644259       0.16807841
H        4.21673783       6.32241710       3.66047158       0.14127903      -0.27351678      -0.17729016       0.14127903      -0.27351678      -0.17729016
H        3.51508426       4.88537190       6.37671015       0.15897465       0.63259345      -0.33136043       0.15897465       0.63259345      -0.33136043
H        2.52850648       4.94047370       4.91000848       0.09460940       0.28970445       0.06667230       0.09460940       0.28970445       0.06667230
H        4.24446679       3.76064019       3.62146326       0.27202657      -0.27502653       0.89280040       0.27202657      -0.27502653       0.89280040
H        3.81892314       2.82108885       5.11133457      -0.29564858      -0.21789071      -0.01393795      -0.29564858      -0.21789071      -0.01393795
18
Lattice="9.99999982150825 0.0 0.0 0.0 9.99999982150825 0.0 0.0 0.0 9.99999982150825" Properties=species:S:1:pos:R:3:forces_eV_per_au:R:3:forces:R:3 closest_conformer=chair color="_JSON [0.13334436423820634, 0.4705978719724295, 0.7097917236638647, 0.9999662626300335]" relative_energy_eV=0.1996839376513435 energy=-1123.8424306078805 free_energy=-1123.8424306078805 pbc="T T T"
C        6.45865105       5.00947150       4.76000590       0.53598991       0.83162949       0.17085495       0.53598991       0.83162949       0.17085495
C        5.69187095       6.28936779       5.23924850       0.93007291      -0.49861841       0.76029629       0.93007291      -0.49861841       0.76029629
C        4.24849449       6.25482709       4.76839789       0.22275729       0.97096862       0.98449674       0.22275729       0.97096862       0.98449674
C        3.56146791       5.01516910       5.26877651      -0.37815811      -1.27565515      -0.72838813      -0.37815811      -1.27565515      -0.72838813
C        4.29260686       3.76935371       4.74397072       0.61736301       0.36298397      -0.87686188       0.61736301       0.36298397      -0.87686188
C        5.73697983       3.75273499       5.26645832       0.50294686      -0.27009696      -1.10770195       0.50294686      -0.27009696      -1.10770195
H        6.43925938       4.98318590       3.65713392       0.07096759      -0.01497488      -0.02704312       0.07096759      -0.01497488      -0.02704312
H        7.54681935       5.08356182       5.04536882      -0.76809701      -0.21217258      -0.01290719      -0.76809701      -0.21217258      -0.01290719
H        5.72631013       6.21005088       6.35967886      -0.16764133       0.35319090      -0.47761635      -0.16764133       0.35319090      -0.47761635
H        6.20297907       7.23797852       4.97908994      -0.04493491      -0.34484304      -0.11881171      -0.04493491      -0.34484304      -0.11881171
H        6.25519568       2.84008436       4.87805959      -0.18407505       0.38396418       0.32010209      -0.18407505       0.38396418       0.32010209
H        5.69919635       3.67982188       6.36077327       0.19445253       0.10957630       0.14391004       0.19445253       0.10957630       0.14391004
H        3.72850676       7.18272713       5.06584701      -0.04236175      -0.13284633       0.17082744      -0.04236175      -0.13284633       0.17082744
H        4.22324137       6.26944583       3.69028463      -0.01762671      -0.12337001      -0.82880976      -0.01762671      -0.12337001      -0.82880976
H        3.51402155       4.84331094       6.34865255      -0.08134816       0.72104094       0.31377872      -0.08134816       0.72104094       0.31377872
H        2.55480865       5.00530743       4.85948762      -0.60844334      -0.06768378       0.14569927      -0.60844334      -0.06768378       0.14569927
H        4.24224832       3.71813076       3.61439213       0.23969623       0.14107977       0.79161078       0.23969623       0.14107977       0.79161078
H        3.87734069       2.85546877       5.09437219      -1.02156022      -0.93417331       0.37656454      -1.02156022      -0.93417331       0.37656454
18
Lattice="9.99999982150825 0.0 0.0 0.0 9.99999982150825 0.0 0.0 0.0 9.99999982150825" Properties=species:S:1:pos:R:3:forces_eV_per_au:R:3:forces:R:3 closest_conformer=chair color="_JSON [0.13334387623581684, 0.4705974927716018, 0.7097922422470261, 0.9999676447567545]" relative_energy_eV=0.23977800698048668 energy=-1123.8023365385513 free_energy=-1123.8023365385513 pbc="T T T"
C        6.46856094       4.97848465       4.73322054      -0.42962517       1.21166939       0.00171415      -0.42962517       1.21166939       0.00171415
C        5.72094552       6.26837670       5.23480955      -0.04525810       0.47818071       0.75568527      -0.04525810       0.47818071       0.75568527
C        4.24830802       6.26481938       4.75408848       0.63870342       0.03812098       0.82885295       0.63870342       0.03812098       0.82885295
C        3.56813097       4.99151463       5.25320478      -0.20447829       0.09198456       0.62024110      -0.20447829       0.09198456       0.62024110
C        4.31537622       3.75744886       4.74712851      -0.93494747       0.06683377       0.54070274      -0.93494747       0.06683377       0.54070274
C        5.72979508       3.74424169       5.25051221       1.08819936      -1.32709161      -0.53053300       1.08819936      -1.32709161      -0.53053300
H        6.50830579       4.97727931       3.60284364      -0.00054713      -0.04150146       0.86108739      -0.00054713      -0.04150146       0.86108739
H        7.47715662       5.06660968       5.12077719       0.59358442      -0.30475749      -0.01718988       0.59358442      -0.30475749      -0.01718988
H        5.70907832       6.25102756       6.39798992       0.05587753      -0.00940407      -1.48858311       0.05587753      -0.00940407      -1.48858311
H        6.22393283       7.24704822       4.96972296      -0.17025279      -0.94975188      -0.00647070      -0.17025279      -0.94975188      -0.00647070
H        6.22172462       2.78536089       4.87021678      -0.24762680       0.94337040       0.45064059      -0.24762680       0.94337040       0.45064059
H        5.72093206       3.66778136       6.36245024       0.17704848       0.21981209      -0.36140917       0.17704848       0.21981209      -0.36140917
H        3.72567962       7.18712252       5.04217116      -0.06193556      -0.04329095       0.29935123      -0.06193556      -0.04329095       0.29935123
H        4.17646812       6.24346452       3.67130360       0.26044452       0.03178603      -0.63740861       0.26044452       0.03178603      -0.63740861
H        3.56864702       4.89991537       6.38752859      -0.35165775       0.47217204      -0.95307118      -0.35165775       0.47217204      -0.95307118
H        2.55603695       5.03027862       4.83163177      -0.33701635      -0.35998015       0.43493012      -0.33701635      -0.35998015       0.43493012
H        4.26491731       3.77390772       3.66717105       0.16180081      -0.22342809      -0.71401695       0.16180081      -0.22342809      -0.71401695
H        3.79600238       2.86531669       5.10322743      -0.19231312      -0.29472453      -0.08452322      -0.19231312      -0.29472453      -0.08452322
18
Lattice="9.99999982150825 0.0 0.0 0.0 9.99999982150825 0.0 0.0 0.0 9.99999982150825" Properties=species:S:1:pos:R:3:forces_eV_per_au:R:3:forces:R:3 closest_conformer=chair color="_JSON [0.1333391536792387, 0.47059326539004426, 0.709797509854156, 0.999982326737898]" relative_energy_eV=0.06028790940945328 energy=-1123.9818266361224 free_energy=-1123.9818266361224 pbc="T T T"
C        6.44996998       4.98134338       4.73977963       0.78914458       0.67918004       0.05996532       0.78914458       0.67918004       0.05996532
C        5.72773293       6.26419489       5.23209492      -0.46301094      -0.44152115      -0.33343686      -0.46301094      -0.44152115      -0.33343686
C        4.23938086       6.27507218       4.77684346       0.90144445      -0.36153233      -0.38644760       0.90144445      -0.36153233      -0.38644760
C        3.56658941       4.98959783       5.26395256      -0.89669562       0.13955382      -1.02948282      -0.89669562       0.13955382      -1.02948282
C        4.31105999       3.72961015       4.75423115      -1.39092053       0.64112951       0.69893125      -1.39092053       0.64112951       0.69893125
C        5.72744506       3.73190049       5.22333740       0.72300218      -0.28518651       0.07515540       0.72300218      -0.28518651       0.07515540
H        6.50014442       4.94548970       3.63220324      -0.07802758       0.20646833       0.15231858      -0.07802758       0.20646833       0.15231858
H        7.51458047       5.03351693       5.08231173      -0.49129051      -0.24632865      -0.09216556      -0.49129051      -0.24632865      -0.09216556
H        5.74826488       6.28546771       6.32854087      -0.02811604      -0.15045916       0.25789887      -0.02811604      -0.15045916       0.25789887
H        6.25168857       7.17277918       4.94640469       0.19911677       0.26998254      -0.41706867       0.19911677       0.26998254      -0.41706867
H        6.21385799       2.81127043       4.85921852       0.21553584       0.10083404       0.20543320       0.21553584       0.10083404       0.20543320
H        5.71180819       3.72544887       6.31994085       0.22669957      -0.18888995       0.22083951       0.22669957      -0.18888995       0.22083951
H        3.75648767       7.19103389       5.12076825      -0.29272267       0.08823383       0.14818219      -0.29272267       0.08823383       0.14818219
H        4.18229251       6.26480474       3.66745959       0.13353256       0.22238603       0.18493919       0.13353256       0.22238603       0.18493919
H        3.56395914       4.99673508       6.33310644      -0.08840507      -0.09864783       1.15614153      -0.08840507      -0.09864783       1.15614153
H        2.49222357       5.00182733       4.93481318       0.58600069      -0.20737593       0.18599643       0.58600069      -0.20737593       0.18599643
H        4.25636017       3.76831880       3.68306632       0.02987390      -0.25212032      -1.01668721       0.02987390      -0.25212032      -1.01668721
H        3.78615257       2.83158683       5.10192561      -0.07516106      -0.11570607      -0.07051250      -0.07516106      -0.11570607      -0.07051250
18
Lattice="9.99999982150825 0.0 0.0 0.0 9.99999982150825 0.0 0.0 0.0 9.99999982150825" Properties=species:S:1:pos:R:3:forces_eV_per_au:R:3:forces:R:3 closest_conformer=chair color="_JSON [0.1333357271406448, 0.4705902513788524, 0.7098013080821203, 0.9999928547741553]" relative_energy_eV=0.1399613447417778 energy=-1123.90215320079 free_energy=-1123.90215320079 pbc="T T T"
C        6.45603290       5.00762728       4.73877364      -0.59864692       0.19904658      -1.27622259      -0.59864692       0.19904658      -1.27622259
C        5.73092235       6.27236352       5.20626056      -0.42305240      -0.55454170       1.51386426      -0.42305240      -0.55454170       1.51386426
C        4.25800579       6.28696832       4.77529010       0.66951295      -1.08754321      -0.79146526       0.66951295      -1.08754321      -0.79146526
C        3.56703932       5.00628252       5.25749309      -0.49657592      -0.21504193       0.54687339      -0.49657592      -0.21504193       0.54687339
C        4.29730781       3.72023419       4.74571251      -1.21248623       0.38530809       1.71317052      -1.21248623       0.38530809       1.71317052
C        5.72860590       3.74733307       5.24344926       0.29400230       0.37086672      -0.30155415       0.29400230       0.37086672      -0.30155415