18
Lattice="9.99999982150825 0.0 0.0 0.0 9.99999982150825 0.0 0.0 0.0 9.99999982150825" Properties=species:S:1:pos:R:3:forces_eV_per_au:R:3:forces:R:3 closest_conformer=half-chair color="_JSON [0.6604022514820691, 0.19282945304071444, 0.33349835910564546, 0.6064395851609946]" relative_energy_eV=0.43801116970121257 energy=-1123.6041033758306 free_energy=-1123.6041033758306 pbc="T T T"
C        6.49830022       5.06395591       5.12029980       0.66251158       0.34989783       0.01445474       0.66251158       0.34989783       0.01445474
C        5.67429923       6.25385489       4.63920081       0.09314387       0.27990083       0.22611207       0.09314387       0.27990083       0.22611207
C        4.32570026       6.25385489       5.36079979      -0.09314207       0.27990135      -0.22610975      -0.09314207       0.27990135      -0.22610975
C        3.50169927       5.06395591       4.87969980      -0.66251004       0.34989372      -0.01445063      -0.66251004       0.34989372      -0.01445063
C        4.24839926       3.73205493       4.86139980      -0.53601973      -0.83558822      -0.21724330      -0.53601973      -0.83558822      -0.21724330
C        5.75160023       3.73205493       5.13859980       0.53601562      -0.83558667       0.21724099       0.53601562      -0.83558667       0.21724099
H        6.83550021       5.27935591       6.15309978       0.07258944       0.09091112      -0.24144664       0.07258944       0.09091112      -0.24144664
H        7.40220120       4.96385491       4.48909981      -0.05689054       0.08984951       0.26790329      -0.05689054       0.08984951       0.26790329
H        5.51330023       6.19145489       3.54559983       0.00904128       0.14985572       0.11985506       0.00904128       0.14985572       0.11985506
H        6.22490022       7.18605587       4.87009980      -0.07764706      -0.13822045      -0.26472747      -0.07764706      -0.13822045      -0.26472747
H        3.77510027       7.18605587       5.12989980       0.07764783      -0.13822559       0.26472952       0.07764783      -0.13822559       0.26472952
H        4.48670025       6.19145489       6.45439977      -0.00904411       0.14985546      -0.11986277      -0.00904411       0.14985546      -0.11986277
H        3.16449928       5.27935591       3.84690082      -0.07259098       0.09090855       0.24144510      -0.07259098       0.09090855       0.24144510
H        2.59779929       4.96385491       5.51089979       0.05689106       0.08984669      -0.26790304       0.05689106       0.08984669      -0.26790304
H        4.08660026       3.27585594       3.86509982      -0.06661368      -0.03076685       0.31362214      -0.06661368      -0.03076685       0.31362214
H        3.77469927       3.05355595       5.59729979       0.06418425       0.04417849      -0.29610444       0.06418425       0.04417849      -0.29610444
H        5.91339923       3.27585594       6.13489978       0.06661214      -0.03077559      -0.31360414       0.06661214      -0.03077559      -0.31360414
H        6.22530022       3.05355595       4.40269981      -0.06417885       0.04416384       0.29608978      -0.06417885       0.04416384       0.29608978
18
Lattice="9.99999982150825 0.0 0.0 0.0 9.99999982150825 0.0 0.0 0.0 9.99999982150825" Properties=species:S:1:pos:R:3:forces_eV_per_au:R:3:forces:R:3 closest_conformer=half-chair color="_JSON [0.6343428743217577, 0.2029243605707747, 0.36628298423567385, 0.5349707130017526]" relative_energy_eV=0.57823592063869 energy=-1123.4638786248931 free_energy=-1123.4638786248931 pbc="T T T"
C        6.50215808       5.07274355       5.12592968       0.16051114       0.13267792       0.62365578       0.16051114       0.13267792       0.62365578
C        5.68622337       6.24427572       4.62547790      -0.14131426       0.79017919       2.07969233      -0.14131426       0.79017919       2.07969233
C        4.33632303       6.26152671       5.34933204      -0.41981847      -0.34609208       0.43995098      -0.41981847      -0.34609208       0.43995098
C        3.50453439       5.04482786       4.90461930       0.44138796       0.96110767      -0.32740993       0.44138796       0.96110767      -0.32740993
C        4.24504296       3.72692701       4.85774247       0.05185272      -0.99555223       0.32219471       0.05185272      -0.99555223       0.32219471
C        5.76896445       3.70013159       5.15264651      -0.05416852       0.69496327      -0.51725865      -0.05416852       0.69496327      -0.51725865
H        6.88114556       5.38085532       6.13678892      -0.17321316      -0.53682371      -0.47124027      -0.17321316      -0.53682371      -0.47124027
H        7.34957073       5.00315824       4.47128109       0.94969377      -0.18707347      -0.28125555       0.94969377      -0.18707347      -0.28125555
H        5.52367883       6.13954818       3.59130054      -0.29558456       0.11340596      -1.75939947      -0.29558456       0.11340596      -1.75939947
H        6.24516675       7.18901568       4.83622734      -0.24592550      -0.40724423      -0.33924961      -0.24592550      -0.40724423      -0.33924961
H        3.75150800       7.15747553       5.11654362       0.03470449       0.23462525       0.06633240       0.03470449       0.23462525       0.06633240
H        4.44241307       6.21011088       6.46187628       0.27629589       0.22805839      -0.45408741       0.27629589       0.22805839      -0.45408741
H        3.16575650       5.26736482       3.90172524      -0.24690561       0.19655107      -0.64193093      -0.24690561       0.19655107      -0.64193093
H        2.60539605       4.95992128       5.48138344      -0.70544026      -0.02403622       0.64061581      -0.70544026      -0.02403622       0.64061581
H        4.05844703       3.29836488       3.86875833       0.13017752      -0.21999824      -0.10665219       0.13017752      -0.21999824      -0.10665219
H        3.75698595       3.03826623       5.56390613       0.06945501      -0.11706361      -0.04793899       0.06945501      -0.11706361      -0.04793899
H        5.95503757       3.29326994       6.12720455      -0.00700471      -0.54882485       0.71008727      -0.00700471      -0.54882485       0.71008727
H        6.22164608       3.01221499       4.42725503       0.17529627       0.03113966       0.06389371       0.17529627       0.03113966       0.06389371
18
Lattice="9.99999982150825 0.0 0.0 0.0 9.99999982150825 0.0 0.0 0.0 9.99999982150825" Properties=species:S:1:pos:R:3:forces_eV_per_au:R:3:forces:R:3 closest_conformer=planar color="_JSON [0.6151805933112457, 0.21032082194164237, 0.3903896634980704, 0.5175155774798619]" relative_energy_eV=0.6055692115039619 energy=-1123.4365453340279 free_energy=-1123.4365453340279 pbc="T T T"
C        6.51327496       5.06848727       5.14706578       0.43205512       1.00714945       0.24580929       0.43205512       1.00714945       0.24580929
C        5.69191671       6.25554904       4.64502178      -1.17015713      -0.25152177       0.37023783      -1.17015713      -0.25152177       0.37023783
C        4.30471399       6.28087271       5.35947589       0.87152478      -0.55894626      -0.27349236       0.87152478      -0.55894626      -0.27349236
C        3.48569759       5.06193809       4.91775071       0.48001493      -0.22854459      -0.97719455       0.48001493      -0.22854459      -0.97719455
C        4.25173501       3.71493904       4.86215741      -0.47595336      -0.90355096      -0.83376967      -0.47595336      -0.90355096      -0.83376967
C        5.76785334       3.71105298       5.17135520      -0.17639567       0.47852806       1.20903864      -0.17639567       0.47852806       1.20903864
H        6.90228174       5.44584614       6.14549520      -0.18975281      -0.95927448      -0.66993101      -0.18975281      -0.95927448      -0.66993101
H        7.35718856       5.01603108       4.44206098       0.29363901      -0.22217288       0.38418529       0.29363901      -0.22217288       0.38418529
H        5.52289627       6.16640107       3.58021718      -0.19397919      -0.07879248      -0.73531905      -0.19397919      -0.07879248      -0.73531905
H        6.25787847       7.17296547       4.76946286       0.14251188       0.42838538       0.24881928       0.14251188       0.42838538       0.24881928
H        3.71870647       7.14983739       5.07050949       0.00566465       0.53795320       0.30183646       0.00566465       0.53795320       0.30183646
H        4.50018546       6.23858864       6.45276154      -0.28843098       0.27973731      -0.22632393      -0.28843098       0.27973731      -0.22632393
H        3.13639100       5.21478369       3.87551169      -0.07437482       0.37679645       0.33092386      -0.07437482       0.37679645       0.33092386
H        2.60468166       4.96366612       5.53307270      -0.54786429      -0.05496196       0.34131189      -0.54786429      -0.05496196       0.34131189
H        4.07920313       3.21787753       3.84192777       0.23471472       0.72655133       1.02768973       0.23471472       0.72655133       1.02768973
H        3.75633981       3.01293533       5.54741984       0.08757049      -0.03525985       0.09884760       0.08757049      -0.03525985       0.09884760
H        5.90133153       3.24415935       6.16911341       0.10734407       0.13603655      -0.29191560       0.10734407       0.13603655      -0.29191560
H        6.24772269       3.06406744       4.46961896       0.46186834      -0.67811226      -0.55075344       0.46186834      -0.67811226      -0.55075344
18
Lattice="9.99999982150825 0.0 0.0 0.0 9.99999982150825 0.0 0.0 0.0 9.99999982150825" Properties=species:S:1:pos:R:3:forces_eV_per_au:R:3:forces:R:3 closest_conformer=planar color="_JSON [0.6078116711260783, 0.21316988168943163, 0.3996601288123057, 0.5377206866957903]" relative_energy_eV=0.6235534872146218 energy=-1123.4185610583172 free_energy=-1123.4185610583172 pbc="T T T"
C        6.51470181       5.07684337       5.15290868       0.37913719       0.50329730       0.26448707       0.37913719       0.50329730       0.26448707
C        5.67188397       6.24888291       4.63096457      -0.95077235      -0.57331384      -0.46259751      -0.95077235      -0.57331384      -0.46259751
C        4.29460474       6.28302634       5.37171949       1.11696460      -0.92250333      -0.70623473       1.11696460      -0.92250333      -0.70623473
C        3.48416497       5.04963760       4.92277992      -0.15769913       0.54850681      -0.49648902      -0.15769913       0.54850681      -0.49648902
C        4.25874358       3.72424089       4.87874488      -0.24579592      -0.33781724       0.32663629      -0.24579592      -0.33781724       0.32663629
C        5.77844691       3.71009107       5.16407630       0.22589327      -0.17794965      -0.35854034       0.22589327      -0.17794965      -0.35854034
H        6.94894591       5.37883532       6.16676205      -0.59667154      -0.53779071      -0.89334522      -0.59667154      -0.53779071      -0.89334522
H        7.36757947       5.00323376       4.47842482       0.44697034      -0.10035864      -0.00326376       0.44697034      -0.10035864      -0.00326376
H        5.51472163       6.15212072       3.51492347      -0.05921559      -0.04837942       0.75452905      -0.05921559      -0.04837942       0.75452905
H        6.22987094       7.16282933       4.74753533       0.27699214       0.69672859       0.23696855       0.27699214       0.69672859       0.23696855
H        3.75822312       7.18012858       5.12447584      -0.43483962       0.68652980      -0.01379088      -0.43483962       0.68652980      -0.01379088
H        4.51917747       6.26574943       6.44213939      -0.17145119       0.05130688       0.29697733      -0.17145119       0.05130688       0.29697733
H        3.13977943       5.24762425       3.88569032       0.08997858       0.15368075       0.21880036       0.08997858       0.15368075       0.21880036
H        2.55549167       4.95001546       5.49076800      -0.08415426      -0.03108515       0.30327267      -0.08415426      -0.03108515       0.30327267
H        4.08588267       3.28060677       3.92525588      -0.03755893      -0.24686961      -1.24103293      -0.03755893      -0.24686961      -1.24103293
H        3.77261514       2.97224410       5.51333833       0.04734558       0.12724570       0.45248947       0.04734558       0.12724570       0.45248947
H        5.82864409       3.31290397       6.17255362       0.62672362      -0.45246248       0.23568557       0.62672362      -0.45246248       0.23568557
H        6.27652086       3.00098452       4.41693748      -0.47184680       0.66123425       1.08544802      -0.47184680       0.66123425       1.08544802
18
Lattice="9.99999982150825 0.0 0.0 0.0 9.99999982150825 0.0 0.0 0.0 9.99999982150825" Properties=species:S:1:pos:R:3:forces_eV_per_au:R:3:forces:R:3 closest_conformer=planar color="_JSON [0.62012800424691, 0.20840328684887138, 0.3841654210765638, 0.5039500958795678]" relative_energy_eV=0.7442230492511044 energy=-1123.2978914962807 free_energy=-1123.2978914962807 pbc="T T T"
C        6.51856985       5.06783423       5.15461413      -0.58370521       0.56912191       0.31453153      -0.58370521       0.56912191       0.31453153
C        5.69497542       6.25670496       4.63913745      -2.27747958      -1.77557865      -0.43093489      -2.27747958      -1.77557865      -0.43093489
C        4.29548227       6.27829597       5.39756235       1.25216709       0.03920341      -1.32684041       1.25216709       0.03920341      -1.32684041
C        3.49363148       5.04791103       4.91688140      -0.70000083       1.17603750      -1.26532343      -0.70000083       1.17603750      -1.26532343
C        4.26309354       3.72091116       4.86987027      -0.52850465      -0.58752150      -1.21544428      -0.52850465      -0.58752150      -1.21544428
C        5.77682032       3.71250346       5.13618535      -0.42732069       0.33855181       2.08501631      -0.42732069       0.33855181       2.08501631
H        6.93478083       5.35711897       6.15690210      -0.35947030      -0.44128383      -0.48291334      -0.35947030      -0.44128383      -0.48291334
H        7.33678530       4.99820627       4.48604056       1.39194409      -0.19533956      -0.61810117       1.39194409      -0.19533956      -0.61810117
H        5.45591757       6.11608091       3.52211414       0.47440581       0.41009327       1.18835051       0.47440581       0.41009327       1.18835051
H        6.23807984       7.13885123       4.82847854       0.70079968       1.44957742      -0.06103747       0.70079968       1.44957742      -0.06103747
H        3.81393156       7.24829414       5.17323502      -0.26106339      -0.37367951       0.07746631      -0.26106339      -0.37367951       0.07746631
H        4.52759604       6.26080733       6.45930164      -0.13189708      -0.10847124       0.53345737      -0.13189708      -0.10847124       0.53345737
H        3.15204085       5.26119257       3.83910087       0.42109682       0.02209169       1.16271481       0.42109682       0.02209169       1.16271481
H        2.54224557       4.98259976       5.46065092       0.04553449      -0.23100282       0.23278254       0.04553449      -0.23100282       0.23278254
H        4.09135149       3.27857772       3.86545624       0.14756435       0.32278786       0.05214197       0.14756435       0.32278786       0.05214197
H        3.75895981       2.96460226       5.46855445       0.01381634      -0.07109923       0.66381307       0.01381634      -0.07109923       0.66381307
H        5.85409774       3.28330061       6.16066460       0.39035877      -0.01520808      -0.41176654       0.39035877      -0.01520808      -0.41176654
H        6.25163890       3.02620581       4.46524835       0.43175481      -0.52828020      -0.49791290       0.43175481      -0.52828020      -0.49791290
18
Lattice="9.99999982150825 0.0 0.0 0.0 9.99999982150825 0.0 0.0 0.0 9.99999982150825" Properties=species:S:1:pos:R:3:forces_eV_per_au:R:3:forces:R:3 closest_conformer=planar color="_JSON [0.6200483116925135, 0.2084352753849913, 0.3842657174456498, 0.5041686077248255]" relative_energy_eV=0.699037049716253 energy=-1123.3430774958156 free_energy=-1123.3430774958156 pbc="T T T"
C        6.49375242       5.04419039       5.13082053       0.75643398       1.30532362      -0.07046725       0.75643398       1.30532362      -0.07046725
C        5.67911861       6.26808945       4.60752432      -0.83977629      -0.84365428       1.44554310      -0.83977629      -0.84365428       1.44554310
C        4.30937564       6.28703678       5.41418423       0.64904954      -0.69988899      -1.91678543       0.64904954      -0.69988899      -1.91678543
C        3.48792167       5.02991640       4.89220831       0.21131100       1.93368555       0.94814263       0.21131100       1.93368555       0.94814263
C        4.27914985       3.72733143       4.84530959      -1.42193163      -1.09099620       0.42804728      -1.42193163      -1.09099620       0.42804728
C        5.77405840       3.69154680       5.15790649      -0.06989750       0.43001546       0.71742751      -0.06989750       0.43001546       0.71742751
H        6.92976227       5.33253308       6.13578422      -0.62888669      -0.33700040      -0.61610522      -0.62888669      -0.33700040      -0.61610522
H        7.37417806       5.00173014       4.49663200       0.50614917      -0.29664180      -0.28754858       0.50614917      -0.29664180      -0.28754858
H        5.42858483       6.16286826       3.53302510       0.25048561       0.18434861       0.19694522       0.25048561       0.18434861       0.19694522
H        6.27285177       7.17396395       4.80902011      -0.14962638      -0.00159743      -0.29217271      -0.14962638      -0.00159743      -0.29217271
H        3.81987444       7.23462411       5.14441706      -0.36837223      -0.16241170       0.36987299      -0.36837223      -0.16241170       0.36987299
H        4.50499304       6.21664756       6.48249461       0.01315428       0.14783380       0.33847545       0.01315428       0.14783380       0.33847545
H        3.15805076       5.29129332       3.90089227      -0.03455048       0.21589425      -0.85020777      -0.03455048       0.21589425      -0.85020777
H        2.53444475       4.99109628       5.43973040       0.14309218      -0.40552622       0.31502570       0.14309218      -0.40552622       0.31502570
H        4.03479207       3.27416562       3.88390394       0.48575775      -0.01857442      -0.54533561       0.48575775      -0.01857442      -0.54533561
H        3.77007280       2.98991107       5.49253597       0.14903991       0.15992699       0.29671430       0.14903991       0.15992699       0.29671430
H        5.94342559       3.29412572       6.17378393      -0.17928071      -0.22112593      -0.22787842      -0.17928071      -0.22112593      -0.22787842
H        6.20559144       2.98892803       4.45982532       0.52784876      -0.29961117      -0.24969294       0.52784876      -0.29961117      -0.24969294
18
Lattice="9.99999982150825 0.0 0.0 0.0 9.99999982150825 0.0 0.0 0.0 9.99999982150825" Properties=species:S:1:pos:R:3:forces_eV_per_au:R:3:forces:R:3 closest_conformer=planar color="_JSON [0.6172247180898768, 0.20952728045982313, 0.38781794706841727, 0.5119107192159285]" relative_energy_eV=0.6724195543033602 energy=-1123.3696949912285 free_energy=-1123.3696949912285 pbc="T T T"
C        6.51396482       5.04697754       5.13483756       0.31685530       1.09169837      -1.13205312       0.31685530       1.09169837      -1.13205312
C        5.67253153       6.26124558       4.61792397       0.05049595      -0.50803533       0.47284798       0.05049595      -0.50803533       0.47284798
C        4.33720530       6.28629871       5.40690380      -0.73468476      -0.03679686       0.20381032      -0.73468476      -0.03679686       0.20381032
C        3.46812196       5.03239301       4.91379327       0.51409671       1.59198825       0.20973234       0.51409671       1.59198825       0.20973234
C        4.26592534       3.70324981       4.83744951      -1.35090671      -0.47996171      -0.49482320      -1.35090671      -0.47996171      -0.49482320
C        5.78202198       3.70114426       5.14758784       0.15532497      -0.21790408      -0.24477571       0.15532497      -0.21790408      -0.24477571
H        6.89335167       5.30563126       6.13950973      -0.16423616      -0.02827185      -0.09769421      -0.16423616      -0.02827185      -0.09769421
H        7.40936141       5.00917504       4.47686333      -0.14448957      -0.19431652       0.29235346      -0.14448957      -0.19431652       0.29235346
H        5.41295302       6.14110270       3.52370739       0.40796028       0.21112254       0.75082640       0.40796028       0.21112254       0.75082640
H        6.34193800       7.14442993       4.77192758      -0.74800924      -0.15788502      -0.24838965      -0.74800924      -0.15788502      -0.24838965
H        3.76598613       7.23883155       5.21572976       0.30292609      -0.69667048       0.04504650       0.30292609      -0.69667048       0.04504650
H        4.48762397       6.25838594       6.52987541       0.12701224      -0.08399537      -0.88817010       0.12701224      -0.08399537      -0.88817010
H        3.13720049       5.34265603       3.90895547       0.05716308      -0.18409716      -0.07840476       0.05716308      -0.18409716      -0.07840476
H        2.52049592       4.92456863       5.48228708       0.46570032       0.04044962       0.09302945       0.46570032       0.04044962       0.09302945
H        3.99354700       3.27406343       3.83315788       0.82257766       0.26093895       0.40880386       0.82257766       0.26093895       0.40880386
H        3.71150857       2.99804674       5.47529481       0.42894485      -0.09563244       0.35802689       0.42894485      -0.09563244       0.35802689
H        6.00647999       3.31762994       6.14179823      -0.40868610      -0.54841013       0.24138056      -0.40868610      -0.54841013       0.24138056
H        6.27978129       3.01416827       4.44239577      -0.09804491       0.03577947       0.10845350      -0.09804491       0.03577947       0.10845350
18
Lattice="9.99999982150825 0.0 0.0 0.0 9.99999982150825 0.0 0.0 0.0 9.99999982150825" Properties=species:S:1:pos:R:3:forces_eV_per_au:R:3:forces:R:3 closest_conformer=planar color="_JSON [0.592691493910843, 0.21902401030578225, 0.41868232580393694, 0.5791792371226783]" relative_energy_eV=0.7316965608024475 energy=-1123.3104179847294 free_energy=-1123.3104179847294 pbc="T T T"
C        6.49980102       5.05408334       5.11233501       1.33412949       0.74849210       0.40082547       1.33412949       0.74849210       0.40082547
C        5.67942393       6.25742044       4.60228650      -0.75076289      -0.90113618       1.43906135      -0.75076289      -0.90113618       1.43906135
C        4.34121444       6.32194894       5.38324830      -1.20309964      -1.03926072      -1.04573579      -1.20309964      -1.03926072      -1.04573579
C        3.45976609       5.04613713       4.90228521       0.65022248       0.89877128       2.09587717       0.65022248       0.89877128       2.09587717
C        4.25321504       3.71385247       4.83285787      -0.04337785       0.51473742       0.40262447      -0.04337785       0.51473742       0.40262447
C        5.78022678       3.71608618       5.14909401      -0.16747677      -1.27692476       0.94494546      -0.16747677      -1.27692476       0.94494546
H        6.92565720       5.23082964       6.15467978      -0.49924884       0.28472088      -0.99398180      -0.49924884       0.28472088      -0.99398180
H        7.39422953       4.98849499       4.45437786      -0.16869059      -0.09370283       0.26038744      -0.16869059      -0.09370283       0.26038744
H        5.47974374       6.10444981       3.54330765      -0.11126012       0.19887714      -0.41309375      -0.11126012       0.19887714      -0.41309375
H        6.25333671       7.15144801       4.75492106       0.42777654       0.75045616      -0.11174529       0.42777654       0.75045616      -0.11174529
H        3.73514086       7.22047227       5.15061986       0.28861533      -0.12176565      -0.06350342       0.28861533      -0.12176565      -0.06350342
H        4.45264221       6.32163021       6.46892004       0.39120183      -0.10830772       0.24208325       0.39120183      -0.10830772       0.24208325
H        3.13546360       5.33585711       3.93257526      -0.65236858       0.14434507      -1.09336085      -0.65236858       0.14434507      -1.09336085
H        2.55436195       4.86519297       5.57688319       0.89782717       0.58328818      -0.79945316       0.89782717       0.58328818      -0.79945316
H        4.14739101       3.30786703       3.84556361      -0.25775515      -0.36035168      -0.77153535      -0.25775515      -0.36035168      -0.77153535
H        3.67553701       3.07516894       5.49846004       0.41383397      -0.67511178       0.17453497       0.41383397      -0.67511178       0.17453497
H        5.94780934       3.28073306       6.18622424      -0.24620524       0.23910951      -0.98846061      -0.24620524       0.23910951      -0.98846061
H        6.28503794       3.00832587       4.45135891      -0.30336086       0.21376409       0.32052992      -0.30336086       0.21376409       0.32052992
18
Lattice="9.99999982150825 0.0 0.0 0.0 9.99999982150825 0.0 0.0 0.0 9.99999982150825" Properties=species:S:1:pos:R:3:forces_eV_per_au:R:3:forces:R:3 closest_conformer=planar color="_JSON [0.5832252874797663, 0.22268637931445207, 0.43059135858468595, 0.6051349644337121]" relative_energy_eV=0.6458998838159005 energy=-1123.396214661716 free_energy=-1123.396214661716 pbc="T T T"
C        6.50853890       5.06175456       5.12417593       0.37867233       0.60241101       0.35035754       0.37867233       0.60241101       0.35035754
C        5.67790774       6.27343080       4.63071862      -0.15220571      -0.35531669      -0.06625219      -0.15220571      -0.35531669      -0.06625219
C        4.34558956       6.33764447       5.38290881      -0.94728105      -1.56913577       0.32696590      -0.94728105      -1.56913577       0.32696590
C        3.44816643       5.05180924       4.91162611       1.93946796       1.06516073       0.64806018       1.93946796       1.06516073       0.64806018
C        4.24668684       3.73387187       4.86280676      -0.06871839      -0.50744089      -0.45160913      -0.06871839      -0.50744089      -0.45160913
C        5.76761460       3.72130636       5.17206348      -0.04118573      -0.96944885       0.13321245      -0.04118573      -0.96944885       0.13321245
H        6.97825602       5.27996512       6.12485800      -0.43908451       0.01030627      -0.63775597      -0.43908451       0.01030627      -0.63775597
H        7.32972003       4.95282637       4.42656844       0.60964635       0.01367107      -0.18805537       0.60964635       0.01367107      -0.18805537
H        5.46350647       6.13294458       3.53715502       0.10634006       0.17661705       0.52433278       0.10634006       0.17661705       0.52433278
H        6.27293694       7.19951816       4.72748027      -0.12523381      -0.13586892       0.02794763      -0.12523381      -0.13586892       0.02794763
H        3.74734184       7.21282866       5.12178068       0.05755466       0.33235262       0.11199365       0.05755466       0.33235262       0.11199365
H        4.50116711       6.31531902       6.52216473      -0.16648767       0.04196837      -1.31717589      -0.16648767       0.04196837      -1.31717589
H        3.10785920       5.21259106       3.89954887      -0.34582854       0.58534300      -0.45122423      -0.34582854       0.58534300      -0.45122423
H        2.59142649       4.91766882       5.54971159      -0.56939059       0.17544437       0.39958671      -0.56939059       0.17544437       0.39958671
H        4.14254789       3.31214541       3.84635578      -0.18031789       0.02146665       0.19758208      -0.18031789       0.02146665       0.19758208
H        3.74358656       3.02892281       5.53316185       0.09771889      -0.24577638       0.00508796       0.09771889      -0.24577638       0.00508796
H        5.87837468       3.26239040       6.17635452       0.19015416       0.17395750      -0.28736577       0.19015416       0.17395750      -0.28736577
H        6.24877108       2.99306068       4.45055894      -0.34382026       0.58428859       0.67431191      -0.34382026       0.58428859       0.67431191
18
Lattice="9.99999982150825 0.0 0.0 0.0 9.99999982150825 0.0 0.0 0.0 9.99999982150825" Properties=species:S:1:pos:R:3:forces_eV_per_au:R:3:forces:R:3 closest_conformer=planar color="_JSON [0.6152828561310704, 0.21027772257337846, 0.3902608931377225, 0.5172351793880896]" relative_energy_eV=0.562433725800247 energy=-1123.4796808197316 free_energy=-1123.4796808197316 pbc="T T T"
C        6.51654829       5.07336606       5.12505465       0.21300818       0.14870772       1.04585303       0.21300818       0.14870772       1.04585303
C        5.69255537       6.28006980       4.65392144      -0.64365305      -0.43474886      -0.68381960      -0.64365305      -0.43474886      -0.68381960
C        4.32906212       6.30656137       5.35091838      -0.18818547      -1.29787205      -0.05161258      -0.18818547      -1.29787205      -0.05161258
C        3.47151215       5.04878088       4.90458890       0.24351895       0.97891899       0.06549885       0.24351895       0.97891899       0.06549885
C        4.26216628       3.73764350       4.87180196      -0.66920159      -0.90421302      -0.75349006      -0.66920159      -0.90421302      -0.75349006