18
Lattice="9.99999982150825 0.0 0.0 0.0 9.99999982150825 0.0 0.0 0.0 9.99999982150825" Properties=species:S:1:pos:R:3:forces_eV_per_au:R:3:forces:R:3 closest_conformer=planar color="_JSON [0.45488852776817984, 0.2725159349936418, 0.5920523090641272, 0.9570260795904278]" relative_energy_eV=1.134255106920591 energy=-1122.9078594386112 free_energy=-1122.9078594386112 pbc="T T T"
C        6.51379999       4.99999991       4.99999991       1.33885106      -0.00000206       0.00000129       1.33885106      -0.00000206       0.00000129
C        5.75690001       6.31099989       4.99999991       0.67969195       1.15851029      -0.00000206       0.67969195       1.15851029      -0.00000206
C        4.24310004       6.31099989       4.99999991      -0.67968449       1.15850489      -0.00000129      -0.67968449       1.15850489      -0.00000129
C        3.48620005       4.99999991       4.99999991      -1.33885183      -0.00000026       0.00000051      -1.33885183      -0.00000026       0.00000051
C        4.24310004       3.68899993       4.99999991      -0.67969632      -1.15850566      -0.00000154      -0.67969632      -1.15850566      -0.00000154
C        5.75690001       3.68899993       4.99999991       0.67969220      -1.15850643      -0.00000206       0.67969220      -1.15850643      -0.00000206
H        7.18239998       4.99999991       5.88319989      -0.02555882       0.00000077      -0.31155265      -0.02555882       0.00000077      -0.31155265
H        7.18239998       4.99999991       4.11679993      -0.02555291       0.00000077       0.31155343      -0.02555291       0.00000077       0.31155343
H        6.09120000       6.88999988       4.11679993      -0.01339236      -0.02221459       0.31206148      -0.01339236      -0.02221459       0.31206148
H        6.09120000       6.88999988       5.88319989      -0.01339776      -0.02221999      -0.31206122      -0.01339776      -0.02221999      -0.31206122
H        3.90879904       6.88999988       4.11679993       0.01339390      -0.02220585       0.31205119       0.01339390      -0.02220585       0.31205119
H        3.90879904       6.88999988       5.88319989       0.01339802      -0.02221202      -0.31204965       0.01339802      -0.02221202      -0.31204965
H        2.81760106       4.99999991       4.11679993       0.02554751      -0.00000951       0.31154880       0.02554751      -0.00000951       0.31154880
H        2.81760106       4.99999991       5.88319989       0.02555445      -0.00000977      -0.31154648       0.02555445      -0.00000977      -0.31154648
H        3.90879904       3.10999994       4.11679993       0.01340239       0.02222230       0.31208333       0.01340239       0.02222230       0.31208333
H        3.90879904       3.10999994       5.88319989       0.01340650       0.02223002      -0.31208333       0.01340650       0.02223002      -0.31208333
H        6.09120000       3.10999994       5.88319989      -0.01340419       0.02221073      -0.31205479      -0.01340419       0.02221073      -0.31205479
H        6.09120000       3.10999994       4.11679993      -0.01339956       0.02220585       0.31205530      -0.01339956       0.02220585       0.31205530
18
Lattice="9.99999982150825 0.0 0.0 0.0 9.99999982150825 0.0 0.0 0.0 9.99999982150825" Properties=species:S:1:pos:R:3:forces_eV_per_au:R:3:forces:R:3 closest_conformer=planar color="_JSON [0.4550577723771367, 0.2724554604597085, 0.5918395554085886, 0.95656201542144]" relative_energy_eV=1.171058911769478 energy=-1122.8710556337624 free_energy=-1122.8710556337624 pbc="T T T"
C        6.51995612       5.02448297       5.00332270       0.93715090      -0.92582648       1.35536629       0.93715090      -0.92582648       1.35536629
C        5.76212453       6.32943092       4.99164569       0.47077156       0.46449010      -0.44616893       0.47077156       0.46449010      -0.44616893
C        4.24546308       6.30976692       4.99271204      -0.91364794       1.13450853       0.33418145      -0.91364794       1.13450853       0.33418145
C        3.46643335       4.98215898       4.98847613      -1.14128390       0.54812757       0.34874160      -1.14128390       0.54812757       0.34874160
C        4.22250401       3.66959020       5.00551325       0.02780468      -0.87953660      -0.06373533       0.02780468      -0.87953660      -0.06373533
C        5.76123387       3.68595314       4.98679903       0.57581578      -0.97125247       0.44494071       0.57581578      -0.97125247       0.44494071
H        7.18216404       5.01730246       5.92592914      -0.44995128      -0.02864080      -0.88942120      -0.44995128      -0.02864080      -0.88942120
H        7.18937828       5.03971189       4.15819299       0.52945159      -0.14980687      -0.39198190       0.52945159      -0.14980687      -0.39198190
H        6.13771936       6.87686344       4.11726448      -0.24209225       0.21194195      -0.06013270      -0.24209225       0.21194195      -0.06013270
H        6.15558018       6.87638730       5.83889640      -0.20281556       0.55551795       0.40290446      -0.20281556       0.55551795       0.40290446
H        3.87069278       6.94915608       4.16902845       0.17920229      -0.33102130      -0.03291423       0.17920229      -0.33102130      -0.03291423
H        3.90530043       6.89292438       5.86295309       0.05510183      -0.11897548       0.14140270       0.05510183      -0.11897548       0.14140270
H        2.80735275       5.02080471       4.10390898       0.05851625      -0.19381207       0.11888832       0.05851625      -0.19381207       0.11888832
H        2.75794592       4.96285385       5.85675221       0.38255804       0.21948248      -0.47166013       0.38255804       0.21948248      -0.47166013
H        3.90808363       3.13243418       4.11018506      -0.15013391      -0.40416636      -0.05393943      -0.15013391      -0.40416636      -0.05393943
H        3.89461573       3.05600426       5.88102575       0.10759218       0.32545512      -0.53567263       0.10759218       0.32545512      -0.53567263
H        6.05753734       3.07901016       5.87570477       0.15160484       0.38026127      -0.39684000       0.15160484       0.38026127      -0.39684000
H        6.15591300       3.09516257       4.13168823      -0.37564511       0.16325297       0.19604070      -0.37564511       0.16325297       0.19604070
18
Lattice="9.99999982150825 0.0 0.0 0.0 9.99999982150825 0.0 0.0 0.0 9.99999982150825" Properties=species:S:1:pos:R:3:forces_eV_per_au:R:3:forces:R:3 closest_conformer=planar color="_JSON [0.45536050511655873, 0.2723672291021841, 0.5914596635439515, 0.9557319434914925]" relative_energy_eV=1.2295159032155425 energy=-1122.8125986423163 free_energy=-1122.8125986423163 pbc="T T T"
C        6.51184757       5.01512284       5.01763935       1.36757131      -0.09466416      -0.48400323       1.36757131      -0.09466416      -0.48400323
C        5.75328725       6.35080167       5.01560621       1.30064576       0.59724695      -0.37800282       1.30064576       0.59724695      -0.37800282
C        4.23032386       6.31144988       5.00109345      -0.01291388       0.48716209       0.93111550      -0.01291388       0.48716209       0.93111550
C        3.46098957       4.99873353       4.97917285       0.00463313      -0.67977808       0.47753228       0.00463313      -0.67977808       0.47753228
C        4.21445701       3.65679422       5.00759906       0.08634613       0.00939892      -0.41859591       0.08634613       0.00939892      -0.41859591
C        5.75386381       3.67534600       4.99198996       0.66452887      -0.68905256       0.22701093       0.66452887      -0.68905256       0.22701093
H        7.22666518       5.05863769       5.87187282      -0.36033754      -0.35360896      -0.28678290      -0.36033754      -0.35360896      -0.28678290
H        7.18509830       5.03506918       4.11638335      -0.37784675      -0.12290876       0.60354564      -0.37784675      -0.12290876       0.60354564
H        6.14717299       6.87925204       4.10385340      -0.57439319      -0.04012438       0.62957523      -0.57439319      -0.04012438       0.62957523
H        6.20228637       6.91532230       5.87771157      -0.84018329      -0.04137805      -0.50586069      -0.84018329      -0.04137805      -0.50586069
H        3.85563457       6.91517955       4.19264761      -0.06833555       0.43939176      -0.58784931      -0.06833555       0.43939176      -0.58784931
H        3.85612394       6.80036308       5.88733432       0.04352852       0.64754159       0.56085530       0.04352852       0.64754159       0.56085530
H        2.86119285       5.07524082       4.09830506      -0.67662745      -0.43617017      -0.82547632      -0.67662745      -0.43617017      -0.82547632
H        2.74668258       4.94645077       5.81095861      -0.03620833       0.31892349       0.03364134      -0.03620833       0.31892349       0.03364134
H        3.88781662       3.10460011       4.13107921      -0.16541038      -0.39262185      -0.20985550      -0.16541038      -0.39262185      -0.20985550
H        3.90892646       3.06434772       5.87811278      -0.17367288       0.07694978      -0.01095958      -0.17367288       0.07694978      -0.01095958
H        6.04205775       3.10600675       5.89527170       0.24380537       0.04222163      -0.28938435       0.24380537       0.04222163      -0.28938435
H        6.15557169       3.09128025       4.12336709      -0.42512985       0.23147076       0.53349439      -0.42512985       0.23147076       0.53349439
18
Lattice="9.99999982150825 0.0 0.0 0.0 9.99999982150825 0.0 0.0 0.0 9.99999982150825" Properties=species:S:1:pos:R:3:forces_eV_per_au:R:3:forces:R:3 closest_conformer=planar color="_JSON [0.45609264684252016, 0.2720892669610042, 0.5905387632442928, 0.9537244558332236]" relative_energy_eV=1.3475236476822374 energy=-1122.6945908978496 free_energy=-1122.6945908978496 pbc="T T T"
C        6.51402255       4.99598342       4.98647257       1.42985192       0.90026406      -0.46950658       1.42985192       0.90026406      -0.46950658
C        5.78202157       6.35420894       5.00394089      -0.48152623      -0.59143369       0.14481507      -0.48152623      -0.59143369       0.14481507
C        4.22269992       6.31871182       4.98863581       0.47302513       1.16004935       0.53012162       0.47302513       1.16004935       0.53012162
C        3.45881299       5.00789038       4.96534860       0.48779149      -0.71824770       0.20722989       0.48779149      -0.71824770       0.20722989
C        4.21608756       3.66689449       5.00735803      -0.38791365      -0.24086532       0.44529347      -0.38791365      -0.24086532       0.44529347
C        5.75547823       3.69039834       4.99318604       0.25254121      -1.43723510       0.29226450       0.25254121      -1.43723510       0.29226450
H        7.19088927       5.04048737       5.84437138       0.16393611      -0.33673352       0.13691484       0.16393611      -0.33673352       0.13691484
H        7.21017779       5.12192560       4.10328052      -0.52093867      -0.82921702       0.59878087      -0.52093867      -0.82921702       0.59878087
H        6.17153638       6.84726987       4.12272586      -0.28335074       0.66473224      -0.31122972      -0.28335074       0.66473224      -0.31122972
H        6.20627615       6.87962285       5.86348669      -0.45472556       0.42376485       0.12302986      -0.45472556       0.42376485       0.12302986
H        3.88990512       6.94205467       4.13303843       0.01196077      -0.07649880       0.45437229       0.01196077      -0.07649880       0.45437229
H        3.82007785       6.74582705       5.91721456       0.43453032       0.83875479      -0.16837872       0.43453032       0.83875479      -0.16837872
H        2.84341322       5.08492354       4.10726441      -0.87314715      -0.43959385      -1.14924557      -0.87314715      -0.43959385      -1.14924557
H        2.77834334       4.98090495       5.80707494      -0.37193347       0.16495941       0.32239962      -0.37193347       0.16495941       0.32239962
H        3.86933572       3.06087532       4.17079735      -0.10446366      -0.25844523      -0.13668884      -0.10446366      -0.25844523      -0.13668884
H        3.87674503       3.13854130       5.94049067       0.29027086       0.22624371      -0.70619693       0.29027086       0.22624371      -0.70619693
H        6.04955844       3.06627090       5.85953671       0.17036438       0.44512352       0.06735390       0.17036438       0.44512352       0.06735390
H        6.14461726       3.05720759       4.18577493      -0.23627332       0.10437805      -0.38132957      -0.23627332       0.10437805      -0.38132957
18
Lattice="9.99999982150825 0.0 0.0 0.0 9.99999982150825 0.0 0.0 0.0 9.99999982150825" Properties=species:S:1:pos:R:3:forces_eV_per_au:R:3:forces:R:3 closest_conformer=planar color="_JSON [0.4559006856258696, 0.2721872332793726, 0.5907810504434579, 0.954250794614143]" relative_energy_eV=1.3128665489066407 energy=-1122.7292479966252 free_energy=-1122.7292479966252 pbc="T T T"
C        6.51516116       4.99635487       4.98231437       1.50249021       0.49325560       1.41218124       1.50249021       0.49325560       1.41218124
C        5.80665149       6.34054634       5.01967581      -1.03967081       0.52700493      -0.98752139      -1.03967081       0.52700493      -0.98752139
C        4.22540088       6.33073765       4.99031552       0.51105278       0.45064162       0.75744005       0.51105278       0.45064162       0.75744005
C        3.46165486       5.00614995       4.98054039      -0.34954019      -0.52359127      -0.51377686      -0.34954019      -0.52359127      -0.51377686
C        4.22893366       3.66507495       5.02173226      -0.51583554      -0.05896697      -1.74537744      -0.51583554      -0.05896697      -1.74537744
C        5.76984671       3.67489250       4.98946971      -0.25796187      -0.41309323       0.81881871      -0.25796187      -0.41309323       0.81881871
H        7.17714918       5.02754749       5.88111151      -0.26270709      -0.34205519      -0.23519346      -0.26270709      -0.34205519      -0.23519346
H        7.26053325       5.12046268       4.20017618       0.05045481      -0.71685467      -0.60824716       0.05045481      -0.71685467      -0.60824716
H        6.15589982       6.87281824       4.09412986      -0.37806401       0.06183992       0.78426643      -0.37806401       0.06183992       0.78426643
H        6.20405779       6.87009572       5.89327797      -0.36439397       0.37000463      -0.09933071      -0.36439397       0.37000463      -0.09933071
H        3.89465828       6.92796807       4.12863607       0.02800985       0.07473631       0.20522057       0.02800985       0.07473631       0.20522057
H        3.82603245       6.78921947       5.90100549       0.35696476       0.73166320      -0.04173620       0.35696476       0.73166320      -0.04173620
H        2.85742730       5.03763971       4.07580385      -0.20177143      -0.25487346      -0.35324515      -0.20177143      -0.25487346      -0.35324515
H        2.70138046       4.96376748       5.77843880       0.24095505       0.26970744       0.07209553       0.24095505       0.26970744       0.07209553
H        3.83872863       3.06082230       4.15404023       0.44090948       0.32455909       0.50674412       0.44090948       0.32455909       0.50674412
H        3.84826681       3.13600628       5.86732681       0.05496736      -0.57794979       0.94437468       0.05496736      -0.57794979       0.94437468
H        6.08539920       3.08794964       5.86569804       0.12709297       0.15784002       0.05106468       0.12709297       0.15784002       0.05106468
H        6.14281645       3.09194505       4.17630551       0.05704738      -0.57386843      -0.96777737       0.05704738      -0.57386843      -0.96777737
18
Lattice="9.99999982150825 0.0 0.0 0.0 9.99999982150825 0.0 0.0 0.0 9.99999982150825" Properties=species:S:1:pos:R:3:forces_eV_per_au:R:3:forces:R:3 closest_conformer=planar color="_JSON [0.45531239216685976, 0.2723326978144795, 0.5915184191478967, 0.9558638550618084]" relative_energy_eV=1.212054358189107 energy=-1122.8300601873427 free_energy=-1122.8300601873427 pbc="T T T"
C        6.52906653       4.99786876       4.98746012       1.19793353      -0.13487364       0.15391189       1.19793353      -0.13487364       0.15391189
C        5.79489192       6.34102293       5.03961359      -0.28189292       0.37514478      -1.38187308      -0.28189292       0.37514478      -1.38187308
C        4.22876365       6.31083466       4.99570135      -0.13802402       1.20091369       1.30362001      -0.13802402       1.20091369       1.30362001
C        3.43227324       4.97780547       4.96236429      -0.42384738       0.90062196      -0.79938785      -0.42384738       0.90062196      -0.79938785
C        4.20630894       3.66944302       5.02302627       0.12366363      -0.40466850      -1.40670068       0.12366363      -0.40466850      -1.40670068
C        5.74864683       3.66067627       4.97987754       0.66086016      -0.25003618       0.88127003       0.66086016      -0.25003618       0.88127003
H        7.19081713       5.01787259       5.86184390       0.05082300      -0.36160226       0.16868031       0.05082300      -0.36160226       0.16868031
H        7.27294699       5.05705270       4.15225523      -0.60554082      -0.34059095       0.22315787      -0.60554082      -0.34059095       0.22315787
H        6.13611851       6.85770100       4.11200302      -0.32168100       0.11505584       0.44999422      -0.32168100       0.11505584       0.44999422
H        6.21511631       6.95133929       5.86185750      -0.52596749      -0.16319589      -0.05903896      -0.52596749      -0.16319589      -0.05903896
H        3.88060553       6.95821440       4.15792631       0.19701746      -0.25553269       0.45938517       0.19701746      -0.25553269       0.45938517
H        3.86710803       6.80247167       5.94956709       0.38226570      -0.00934133      -0.89048538       0.38226570      -0.00934133      -0.89048538
H        2.79412254       5.05303937       4.04218824       0.38359162      -0.43930331       0.50232697       0.38359162      -0.43930331       0.50232697
H        2.72039805       5.04251218       5.79529252      -0.03335492      -0.25742605      -0.02262674      -0.03335492      -0.25742605      -0.02262674
H        3.92491078       3.06113891       4.14156290      -0.32783365       0.01026564       0.38952470      -0.32783365       0.01026564       0.38952470
H        3.91128020       3.12654151       5.89895337      -0.36023778      -0.47223529       0.58470820      -0.36023778      -0.47223529       0.58470820
H        6.05080085       3.08406531       5.88904281       0.09181821       0.31634133      -0.45694931       0.09181821       0.31634133      -0.45694931
H        6.09582237       3.03039838       4.14946234      -0.06959308       0.17046234      -0.09951763      -0.06959308       0.17046234      -0.09951763
18
Lattice="9.99999982150825 0.0 0.0 0.0 9.99999982150825 0.0 0.0 0.0 9.99999982150825" Properties=species:S:1:pos:R:3:forces_eV_per_au:R:3:forces:R:3 closest_conformer=planar color="_JSON [0.4548164669560566, 0.2725211106013545, 0.5921422068728032, 0.9572236526855366]" relative_energy_eV=1.2768944600052237 energy=-1122.7652200855266 free_energy=-1122.7652200855266 pbc="T T T"
C        6.55292562       4.98158917       4.97670562      -0.54994817       0.48130511       1.08600981      -0.54994817       0.48130511       1.08600981
C        5.79170916       6.34660819       5.02628697      -0.46667039       0.23472321      -0.45287437      -0.46667039       0.23472321      -0.45287437
C        4.21951645       6.33389042       5.00984348       0.23340346       0.16959973      -0.02001347       0.23340346       0.16959973      -0.02001347
C        3.44435884       4.98292169       4.93986381      -0.39221896       0.67930320       0.14113299      -0.39221896       0.67930320       0.14113299
C        4.18195347       3.66497909       5.02542886       1.61266944      -0.42364555      -0.37883765       1.61266944      -0.42364555      -0.37883765
C        5.76258907       3.64388105       4.98696361       0.12814635       0.40936128      -0.10575076       0.12814635       0.40936128      -0.10575076
H        7.13327275       5.00429034       5.90110590       0.56634384      -0.23221844      -0.08459007       0.56634384      -0.23221844      -0.08459007
H        7.21872677       5.08833461       4.12483330       0.32841781      -0.51733192      -0.13873210       0.32841781      -0.51733192      -0.13873210
H        6.11920455       6.88499233       4.12798163      -0.15226973       0.13483842      -0.10015578      -0.15226973       0.13483842      -0.10015578
H        6.20588732       6.98049997       5.84284860      -0.46632715      -0.41370284      -0.07562874      -0.46632715      -0.41370284      -0.07562874
H        3.86387379       6.90020972       4.12879354       0.25966728       0.17664224       0.35327780       0.25966728       0.17664224       0.35327780
H        3.81445278       6.83439363       5.90356860       0.32198671       0.26138992      -0.16382118       0.32198671       0.26138992      -0.16382118
H        2.81674425       5.03369219       4.03250578       0.04348995      -0.24155051       0.22136401       0.04348995      -0.24155051       0.22136401
H        2.77092824       5.02866963       5.80936957      -0.26914488      -0.18013509      -0.30600010      -0.26914488      -0.18013509      -0.30600010
H        3.97782668       3.03904855       4.16117502      -0.87698426      -0.37714124       0.05666583      -0.87698426      -0.37714124       0.05666583
H        3.92620344       3.17192566       5.97022202      -0.28673637      -0.26001849      -0.27906419      -0.28673637      -0.26001849      -0.27906419
H        6.02029137       3.05194508       5.85732856       0.47788837       0.03225243       0.52477732       0.47788837       0.03225243       0.52477732
H        6.17953386       3.02812708       4.17517353      -0.51171304       0.06632855      -0.27775936      -0.51171304       0.06632855      -0.27775936
18
Lattice="9.99999982150825 0.0 0.0 0.0 9.99999982150825 0.0 0.0 0.0 9.99999982150825" Properties=species:S:1:pos:R:3:forces_eV_per_au:R:3:forces:R:3 closest_conformer=planar color="_JSON [0.45447127170292884, 0.27264926509563925, 0.5925763010365894, 0.958170146775179]" relative_energy_eV=1.371790623756624 energy=-1122.6703239217752 free_energy=-1122.6703239217752 pbc="T T T"
C        6.52028110       5.00482574       4.99008024       1.32485346       0.35084502       1.24501454       1.32485346       0.35084502       1.24501454
C        5.77430265       6.36579683       5.01456325      -1.05290403      -0.80108787      -1.75086263      -1.05290403      -0.80108787      -1.75086263
C        4.18391979       6.31905321       5.02883721       0.48880733       1.58733276      -0.89156267       0.48880733       1.58733276      -0.89156267
C        3.44490937       4.98403860       4.94212278       0.35133508       0.10274000       0.83876918       0.35133508       0.10274000       0.83876918
C        4.18558600       3.67694699       5.02309299       1.89055632      -1.01242072      -1.16689414       1.89055632      -1.01242072      -1.16689414
C        5.75702268       3.67422676       4.99731254       0.30914250      -0.38761026      -0.80469975       0.30914250      -0.38761026      -0.80469975
H        7.22642786       5.00951515       5.87635555      -0.67574325      -0.07794788      -0.45966414      -0.67574325      -0.07794788      -0.45966414
H        7.25469486       5.00864982       4.17992457      -0.17433442       0.02460829      -0.41864270      -0.17433442       0.02460829      -0.41864270
H        6.08413113       6.90705794       4.09639577      -0.20832261      -0.08275790       0.26207563      -0.20832261      -0.08275790       0.26207563
H        6.14140100       6.95981563       5.81277936       0.23005871       0.61935484       1.06975632       0.23005871       0.61935484       1.06975632
H        3.82595825       6.93302369       4.11500296       0.50422778      -0.58289454       1.36043650       0.50422778      -0.58289454       1.36043650
H        3.82641941       6.86217550       5.92438896       0.14518865      -0.03093628      -0.25654904       0.14518865      -0.03093628      -0.25654904
H        2.86322384       5.02189242       4.06325011      -0.91643090      -0.15674499      -1.18668804      -0.91643090      -0.15674499      -1.18668804
H        2.76688477       4.90617156       5.77717004      -0.74674915       0.41004982       0.30843185      -0.74674915       0.41004982       0.30843185
H        3.97236787       3.02791043       4.14387907      -0.65474942       0.09880724       0.70960365      -0.65474942       0.09880724       0.70960365
H        3.95707949       3.19262849       5.96741116      -0.47709570      -0.45537682      -0.02844874      -0.47709570      -0.45537682      -0.02844874
H        6.02986016       3.12297326       5.88030356       0.41298370      -0.27605163       0.62928495       0.41298370      -0.27605163       0.62928495
H        6.18552816       3.02329638       4.16712826      -0.75082434       0.67009119       0.54063949      -0.75082434       0.67009119       0.54063949
18
Lattice="9.99999982150825 0.0 0.0 0.0 9.99999982150825 0.0 0.0 0.0 9.99999982150825" Properties=species:S:1:pos:R:3:forces_eV_per_au:R:3:forces:R:3 closest_conformer=planar color="_JSON [0.45502209201190047, 0.272457379943899, 0.5918840467446559, 0.9566598457798782]" relative_energy_eV=1.29789457338984 energy=-1122.744219972142 free_energy=-1122.744219972142 pbc="T T T"
C        6.52819733       5.01907516       5.00787579       0.38003219       0.16621873      -0.17251099       0.38003219       0.16621873      -0.17251099
C        5.77145674       6.36075970       5.00341554      -0.08839144       0.60670810      -1.19557325      -0.08839144       0.60670810      -1.19557325
C        4.18194396       6.31745951       5.02178710       0.85624472       0.74314883       0.80300257       0.85624472       0.74314883       0.80300257
C        3.44031049       4.98525677       4.93749155      -0.48923311      -0.41669869       1.63691442      -0.48923311      -0.41669869       1.63691442
C        4.20751246       3.66730651       5.03248411       0.82119904      -0.91886239      -0.10515272       0.82119904      -0.91886239      -0.10515272
C        5.77214387       3.69256088       5.00176270      -0.67790966       0.53445290       0.07690967      -0.67790966       0.53445290       0.07690967
H        7.21073738       4.95959159       5.84110853       0.25897848       0.32613698       0.78622381       0.25897848       0.32613698       0.78622381
H        7.23413252       4.98560154       4.17608217      -0.04017914       0.22877830      -0.43815403      -0.04017914       0.22877830      -0.43815403
H        6.09307445       6.92575646       4.06809953      -0.41391496      -0.52334265       0.81419329      -0.41391496      -0.52334265       0.81419329
H        6.17158402       6.99203166       5.81974864      -0.42088547      -0.17469155      -0.04786494      -0.42088547      -0.17469155      -0.04786494
H        3.79072114       6.86505355       4.16054016       0.24066297       0.58131331       0.13256814       0.24066297       0.58131331       0.13256814
H        3.88569893       6.85752653       5.95194568      -0.05884252      -0.17767968      -0.54655945      -0.05884252      -0.17767968      -0.54655945
H        2.88096704       5.00305338       4.03006026      -0.54806766      -0.16084693      -0.93072238      -0.54806766      -0.16084693      -0.93072238
H        2.66201290       4.93412649       5.75069767       0.44791240       0.27048725      -0.58702348       0.44791240       0.27048725      -0.58702348
H        3.95156248       3.07164742       4.14695836      -0.42676122      -0.28374617       0.26117549      -0.42676122      -0.28374617       0.26117549
H        3.91528872       3.10014386       5.96437520       0.07850324       0.41084634      -0.90252200       0.07850324       0.41084634      -0.90252200
H        6.06737822       3.15289450       5.85863087       0.46616774      -0.66166569       1.40615817       0.46616774      -0.66166569       1.40615817
H        6.23527575       3.11015290       4.22693452      -0.38551558      -0.55055700      -0.99106231      -0.38551558      -0.55055700      -0.99106231
18
Lattice="9.99999982150825 0.0 0.0 0.0 9.99999982150825 0.0 0.0 0.0 9.99999982150825" Properties=species:S:1:pos:R:3:forces_eV_per_au:R:3:forces:R:3 closest_conformer=planar color="_JSON [0.4549666853017396, 0.27245803352255, 0.591953055415602, 0.9568117457541024]" relative_energy_eV=1.2637538106230295 energy=-1122.7783607349088 free_energy=-1122.7783607349088 pbc="T T T"
C        6.53335763       5.00666635       5.00894461       1.27669259       0.69757217      -0.76264730       1.27669259       0.69757217      -0.76264730
C        5.78555411       6.36031738       4.97931445      -0.78520745      -0.01898143      -1.36399002      -0.78520745      -0.01898143      -1.36399002
C        4.19230668       6.31826742       5.01635747       0.45571955       1.15139270       0.08199711       0.45571955       1.15139270       0.08199711
C        3.42664431       4.97858893       4.92595935       0.34653148       0.01226493       1.12576009       0.34653148       0.01226493       1.12576009
C        4.21287602       3.65605495       5.01925770       0.32565233      -0.69104208       0.46428030       0.32565233      -0.69104208       0.46428030
C        5.76267450       3.69316935       5.00993335       0.53204840      -0.85379368       1.76626791       0.53204840      -0.85379368       1.76626791