18
Lattice="9.99999982150825 0.0 0.0 0.0 9.99999982150825 0.0 0.0 0.0 9.99999982150825" Properties=species:S:1:pos:R:3:forces_eV_per_au:R:3:forces:R:3 closest_conformer=twist-boat color="_JSON [0.4588275272192794, 0.7568554470033795, 0.34901739524787145, 0.9999881681030139]" relative_energy_eV=0.19952529528336527 energy=-1123.8425892502485 free_energy=-1123.8425892502485 pbc="T T T"
C        6.51819877       5.00000013       4.99999969       0.38633705      -0.00000746       0.00000463       0.38633705      -0.00000746       0.00000463
C        5.66619879       6.22119911       5.37609968       0.03507319       0.30111963       0.04661539       0.03507319       0.30111963       0.04661539
C        4.33379981       6.22119911       4.62390070      -0.03508656       0.30107464      -0.04661770      -0.03508656       0.30107464      -0.04661770
C        3.48180083       5.00000013       4.99999969      -0.38633190       0.00001825       0.00001723      -0.38633190       0.00001825       0.00001723
C        4.33379981       3.77880015       5.37609968      -0.03509324      -0.30110369       0.04663647      -0.03509324      -0.30110369       0.04663647
C        5.66619879       3.77880015       4.62390070       0.03512101      -0.30110806      -0.04661179       0.03512101      -0.30110806      -0.04661179
H        7.16610076       4.74759914       5.86149967       0.03038658       0.04999947      -0.27537878       0.03038658       0.04999947      -0.27537878
H        7.16610076       5.25240013       4.13850070       0.03038247      -0.04990691       0.27538700       0.03038247      -0.04990691       0.27538700
H        6.23049978       7.14380009       5.14069969      -0.14181717      -0.12677030       0.26479457      -0.14181717      -0.12677030       0.26479457
H        5.46199979       6.20270011       6.46429966       0.06267732       0.16774340      -0.16327045       0.06267732       0.16774340      -0.16327045
H        4.53799981       6.20270011       3.53569971      -0.06272309       0.16772411       0.16327945      -0.06272309       0.16772411       0.16327945
H        3.76950082       7.14380009       4.85929969       0.14177911      -0.12680578      -0.26479200       0.14177911      -0.12680578      -0.26479200
H        2.83389984       4.74759914       4.13850070      -0.03031845       0.05002158       0.27549062      -0.03031845       0.05002158       0.27549062
H        2.83389984       5.25240013       5.86149967      -0.03030379      -0.04995242      -0.27550373      -0.03030379      -0.04995242      -0.27550373
H        3.76950082       2.85620017       5.14069969       0.14168038       0.12670319       0.26477580       0.14168038       0.12670319       0.26477580
H        4.53799981       3.79730015       6.46429966      -0.06273029      -0.16768658      -0.16311516      -0.06273029      -0.16768658      -0.16311516
H        6.23049978       2.85620017       4.85929969      -0.14170224       0.12664560      -0.26478352      -0.14170224       0.12664560      -0.26478352
H        5.46199979       3.79730015       3.53569971       0.06266935      -0.16770843       0.16307145       0.06266935      -0.16770843       0.16307145
18
Lattice="9.99999982150825 0.0 0.0 0.0 9.99999982150825 0.0 0.0 0.0 9.99999982150825" Properties=species:S:1:pos:R:3:forces_eV_per_au:R:3:forces:R:3 closest_conformer=twist-boat color="_JSON [0.45883638651686426, 0.7568362079110568, 0.34901399403973826, 0.9999556393228769]" relative_energy_eV=0.4177943360014069 energy=-1123.6243202095304 free_energy=-1123.6243202095304 pbc="T T T"
C        6.51134234       5.02027883       5.01802726       0.29312196      -1.09057454      -0.27051528       0.29312196      -1.09057454      -0.27051528
C        5.64937934       6.21433238       5.37012335      -0.33331293      -1.10466290       0.89694374      -0.33331293      -1.10466290       0.89694374
C        4.33529884       6.21516752       4.61137650      -0.08846549       1.30230926      -0.10475626      -0.08846549       1.30230926      -0.10475626
C        3.48659850       5.00119234       5.00563041      -0.57005137       0.55830580      -0.16866668      -0.57005137       0.55830580      -0.16866668
C        4.32837487       3.77771387       5.36236442      -0.35006315      -0.87204132      -0.67576561      -0.35006315      -0.87204132      -0.67576561
C        5.67620986       3.76709720       4.61387677       0.09292970      -0.57285721       0.48403022       0.09292970      -0.57285721       0.48403022
H        7.18015272       4.80373088       5.87061442      -0.05043630      -0.18010578      -0.18469211      -0.05043630      -0.18010578      -0.18469211
H        7.15181553       5.24605407       4.16344842       0.29577354       0.21592253      -0.14198712       0.29577354       0.21592253      -0.14198712
H        6.23256805       7.07043010       5.17890626       0.62012334       1.55282675      -0.20601607       0.62012334       1.55282675      -0.20601607
H        5.45771436       6.19559624       6.47445374      -0.10917264       0.12579765      -0.53001158      -0.10917264       0.12579765      -0.53001158
H        4.52107243       6.21541541       3.49382944      -0.14128263       0.21871886       0.91069014      -0.14128263       0.21871886       0.91069014
H        3.86048497       7.19265292       4.93247349      -0.09604690      -0.83504211      -0.79327711      -0.09604690      -0.83504211      -0.79327711
H        2.82337812       4.76232277       4.15594150      -0.06393948      -0.00820645       0.19056194      -0.06393948      -0.00820645       0.19056194
H        2.84061235       5.27403469       5.86332077       0.03902755      -0.13231205      -0.20978993       0.03902755      -0.13231205      -0.20978993
H        3.69147625       2.88923863       5.06968361       0.77969578       0.39699350       0.65256629       0.77969578       0.39699350       0.65256629
H        4.54481525       3.78609449       6.43218999      -0.13487801      -0.31715972       0.29554471      -0.13487801      -0.31715972       0.29554471
H        6.24351657       2.82362878       4.85484109      -0.38406496       0.64738398      -0.24218275      -0.38406496       0.64738398      -0.24218275
H        5.46518804       3.74501730       3.52889695       0.20104176       0.09470350       0.09732294       0.20104176       0.09470350       0.09732294
18
Lattice="9.99999982150825 0.0 0.0 0.0 9.99999982150825 0.0 0.0 0.0 9.99999982150825" Properties=species:S:1:pos:R:3:forces_eV_per_au:R:3:forces:R:3 closest_conformer=twist-boat color="_JSON [0.4588462933668604, 0.7568165961467722, 0.3490092588607705, 0.9999231780937342]" relative_energy_eV=0.4164462840444685 energy=-1123.6256682614874 free_energy=-1123.6256682614874 pbc="T T T"
C        6.50567103       5.00873782       5.01575607       1.02977850      -0.60428201      -0.67794668       1.02977850      -0.60428201      -0.67794668
C        5.63818710       6.19925602       5.37149919       1.13143940       0.41182645      -0.21508615       1.13143940       0.41182645      -0.21508615
C        4.33398315       6.22771440       4.62282221       0.17548010       0.05328714      -0.95328766       0.17548010       0.05328714      -0.95328766
C        3.49032911       4.99900604       4.99439498      -0.38712226       0.42470202      -0.19490685      -0.38712226       0.42470202      -0.19490685
C        4.32499378       3.78052057       5.36152598       0.57032776       0.28754498       0.77226323       0.57032776       0.28754498       0.77226323
C        5.66824515       3.76608948       4.62076277       0.33046106      -0.77724809       0.40235810       0.33046106      -0.77724809       0.40235810
H        7.21496349       4.79130219       5.83953537      -0.25068230      -0.10491001      -0.10044837      -0.25068230      -0.10491001      -0.10044837
H        7.16418706       5.30441701       4.15530912      -0.35887124      -0.27454368       0.38494711      -0.35887124      -0.27454368       0.38494711
H        6.27989375       7.08782289       5.23362994      -0.40669273       0.17911873      -0.20065840      -0.40669273       0.17911873      -0.20065840
H        5.41113840       6.22371527       6.41999799      -0.22362504      -0.18697628       1.02167464      -0.22362504      -0.18697628       1.02167464
H        4.49110004       6.20098060       3.51376831       0.09962408       0.23718092       0.53295935       0.09962408       0.23718092       0.53295935
H        3.91758691       7.19896106       4.87952797      -0.84437316       0.12595937      -0.17943729      -0.84437316       0.12595937      -0.17943729
H        2.79294596       4.74755098       4.19868492      -0.07336026      -0.03383212      -0.57185242      -0.07336026      -0.03383212      -0.57185242
H        2.83020053       5.20458235       5.81898801      -0.40374059       0.37853015       0.76049143      -0.40374059       0.37853015       0.76049143
H        3.73353928       2.90464506       5.13254144      -0.11884873      -0.63722375       0.13381872      -0.11884873      -0.63722375       0.13381872
H        4.50898674       3.82828006       6.47457281      -0.01547470      -0.36238285      -0.76426556      -0.01547470      -0.36238285      -0.76426556
H        6.19348396       2.79327185       4.80515499      -0.06696464       0.63114206       0.15501618      -0.06696464       0.63114206       0.15501618
H        5.50056297       3.73314476       3.54152632      -0.18735526       0.25210721      -0.30563912      -0.18735526       0.25210721      -0.30563912
18
Lattice="9.99999982150825 0.0 0.0 0.0 9.99999982150825 0.0 0.0 0.0 9.99999982150825" Properties=species:S:1:pos:R:3:forces_eV_per_au:R:3:forces:R:3 closest_conformer=twist-boat color="_JSON [0.45885935344773293, 0.7567896294747317, 0.3490035616004258, 0.9998780953844936]" relative_energy_eV=0.41847230763028165 energy=-1123.6236422379015 free_energy=-1123.6236422379015 pbc="T T T"
C        6.49460015       5.00516009       5.00502894       1.35047785      -0.77758619      -0.10313955       1.35047785      -0.77758619      -0.10313955
C        5.64585102       6.18896290       5.37279369       0.44297074       1.66644046      -0.00984013       0.44297074       1.66644046      -0.00984013
C        4.31182543       6.22508755       4.60018473       0.34822918       0.70755499       0.08161350       0.34822918       0.70755499       0.08161350
C        3.44359723       5.01313901       4.99131836       0.66462477       0.00780587       0.59839624       0.66462477       0.00780587       0.59839624
C        4.31235051       3.78623327       5.35050641       0.63942204       0.64113080       0.63211034       0.63942204       0.64113080       0.63211034
C        5.65990540       3.77447571       4.61550488      -0.62681618       0.80604238       0.13363052      -0.62681618       0.80604238       0.13363052
H        7.19839030       4.75828552       5.83099750      -0.42004292      -0.04440681       0.01604651      -0.42004292      -0.04440681       0.01604651
H        7.21225740       5.21794503       4.19098032      -0.32100017       0.24289520      -0.13408714      -0.32100017       0.24289520      -0.13408714
H        6.24763029       7.14551952       5.20564977      -0.69908064      -0.84379492       0.13591288      -0.69908064      -0.84379492       0.13591288
H        5.42625616       6.18649237       6.46171576      -0.04817913      -0.02791807      -0.26290815      -0.04817913      -0.02791807      -0.26290815
H        4.47397978       6.17905561       3.49259920       0.12696262       0.21788402       0.58998616       0.12696262       0.21788402       0.58998616
H        3.88609097       7.23244672       4.84041594      -0.33334481      -0.71880151      -0.33201401      -0.33334481      -0.71880151      -0.33201401
H        2.86156214       4.74352182       4.14130633      -1.03899924      -0.14862905      -0.72793587      -1.03899924      -0.14862905      -0.72793587
H        2.81019185       5.19819546       5.87024988      -0.24140962       0.26095926      -0.24883985      -0.24140962       0.26095926      -0.24883985
H        3.77350485       2.86572803       5.18865427      -0.38664044      -0.51997990      -0.07063257      -0.38664044      -0.51997990      -0.07063257
H        4.52018043       3.85988203       6.44231718       0.03480220      -0.29129827      -0.30181692       0.03480220      -0.29129827      -0.30181692
H        6.19674085       2.90032023       4.86435023       0.74385357      -1.33026949       0.38414647       0.74385357      -1.33026949       0.38414647
H        5.52508361       3.71954751       3.53542502      -0.23583007       0.15197122      -0.38062791      -0.23583007       0.15197122      -0.38062791
18
Lattice="9.99999982150825 0.0 0.0 0.0 9.99999982150825 0.0 0.0 0.0 9.99999982150825" Properties=species:S:1:pos:R:3:forces_eV_per_au:R:3:forces:R:3 closest_conformer=twist-boat color="_JSON [0.4589131890175009, 0.7566527910651326, 0.348992654892285, 0.9996394252377476]" relative_energy_eV=0.4148903371151391 energy=-1123.6272242084167 free_energy=-1123.6272242084167 pbc="T T T"
C        6.54445014       4.99240118       5.00046486      -1.20088798       0.12912620      -1.77815746      -1.20088798       0.12912620      -1.77815746
C        5.65310222       6.19727211       5.36940898      -0.11522682       0.16905800       0.42544378      -0.11522682       0.16905800       0.42544378
C        4.29877691       6.25360831       4.59687269       0.93794666       0.16880398       1.39698088       0.93794666       0.16880398       1.39698088
C        3.47634037       5.02814249       5.01161680      -1.41336832      -0.00426572      -0.20890907      -1.41336832      -0.00426572      -0.20890907
C        4.31637154       3.81967395       5.35058211       0.69550115      -1.78025780       0.71753396       0.69550115      -1.78025780       0.71753396
C        5.64873913       3.76577558       4.60967662       0.51093399       0.51251702       0.01944088       0.51093399       0.51251702       0.01944088
H        7.21035807       4.75694154       5.78269334       0.84858951      -0.39606790       1.30178167       0.84858951      -0.39606790       1.30178167
H        7.18237554       5.21770195       4.12920125      -0.03665750       0.17638128       0.04639607      -0.03665750       0.17638128       0.04639607
H        6.15926765       7.15039963       5.26727563       0.52398491       0.35958883      -0.38071224       0.52398491       0.35958883      -0.38071224
H        5.46899376       6.18182435       6.46761468      -0.30559541      -0.21770533      -0.31438035      -0.30559541      -0.21770533      -0.31438035
H        4.48215794       6.24640164       3.52689779       0.11331289       0.04658993      -0.43227855       0.11331289       0.04658993      -0.43227855
H        3.85133549       7.23377408       4.86109143      -0.27926166      -0.46021744      -0.21206716      -0.27926166      -0.46021744      -0.21206716
H        2.84079380       4.73896381       4.15960653      -0.26594180       0.13254397       0.07607611      -0.26594180       0.13254397       0.07607611
H        2.79485994       5.22975481       5.87478304       0.27758864       0.13439053      -0.49049835       0.27758864       0.13439053      -0.49049835
H        3.82718553       2.81090520       5.17966335      -0.12407141       1.06084179       0.08829297      -0.12407141       1.06084179       0.08829297
H        4.58316512       3.79461868       6.43529878      -0.22877625       0.13248149      -0.30434045      -0.22877625       0.13248149      -0.30434045
H        6.14568351       2.82724695       4.86210751       0.23695210      -0.17725211       0.00007379       0.23695210      -0.17725211       0.00007379
H        5.51604174       3.75459214       3.51514300      -0.17502219       0.01344353       0.04932379      -0.17502219       0.01344353       0.04932379
18
Lattice="9.99999982150825 0.0 0.0 0.0 9.99999982150825 0.0 0.0 0.0 9.99999982150825" Properties=species:S:1:pos:R:3:forces_eV_per_au:R:3:forces:R:3 closest_conformer=twist-boat color="_JSON [0.4594033517728989, 0.7547857671915658, 0.3491976142063183, 0.9961883774269628]" relative_energy_eV=0.5291229102413126 energy=-1123.5129916352905 free_energy=-1123.5129916352905 pbc="T T T"
C        6.53560386       4.97949900       4.98609998      -0.13721875      -0.48217029       1.94871031      -0.13721875      -0.48217029       1.94871031
C        5.65367559       6.18745529       5.36830751      -0.15878696       0.35596538       0.22340932      -0.15878696       0.35596538       0.22340932
C        4.29944345       6.24297117       4.60931866       0.48039417       0.51159476       0.63650127       0.48039417       0.51159476       0.63650127
C        3.47860200       5.02943241       5.00268825      -1.75003885      -0.55463452      -0.25512465      -1.75003885      -0.55463452      -0.25512465
C        4.31841863       3.81615408       5.36040821       0.91998673      -1.60764550       0.54746063       0.91998673      -1.60764550       0.54746063
C        5.66312673       3.74656275       4.61227746       0.13225086       1.68580652      -0.26729060       0.13225086       1.68580652      -0.26729060
H        7.29457198       4.70516052       5.80442239      -1.02811808       0.42139584      -0.66295844      -1.02811808       0.42139584      -0.66295844
H        7.13354662       5.26565503       4.16969586       0.96117555       0.34971657      -1.41873832       0.96117555       0.34971657      -1.41873832
H        6.16393581       7.13561685       5.21802421       0.47603692       0.25845577      -0.30993749       0.47603692       0.25845577      -0.30993749
H        5.43812381       6.23369431       6.45095852      -0.11347410      -0.37569088      -0.03897715      -0.11347410      -0.37569088      -0.03897715
H        4.42596193       6.23599435       3.52688627       0.33756502       0.18051870      -0.30909674       0.33756502       0.18051870      -0.30909674
H        3.83640628       7.22316529       4.88643312      -0.09139449      -0.64783675      -0.26438577      -0.09139449      -0.64783675      -0.26438577
H        2.75574553       4.70558870       4.21379140       0.50674901       0.35025701      -0.09475441       0.50674901       0.35025701      -0.09475441
H        2.76742471       5.26600264       5.80494854       0.22128071       0.07658468       0.42283797       0.22128071       0.07658468       0.42283797
H        3.81911642       2.83738105       5.14962028      -0.20833160       0.65606454       0.23525337      -0.20833160       0.65606454       0.23525337
H        4.60558268       3.76971063       6.45670571      -0.43958742       0.19545629      -0.76094009      -0.43958742       0.19545629      -0.76094009
H        6.19798123       2.86836202       4.86748983       0.51062443      -1.22519236       0.36131970       0.51062443      -1.22519236       0.36131970
H        5.61273113       3.75159231       3.51192217      -0.61911316      -0.14864602       0.00671161      -0.61911316      -0.14864602       0.00671161
18
Lattice="9.99999982150825 0.0 0.0 0.0 9.99999982150825 0.0 0.0 0.0 9.99999982150825" Properties=species:S:1:pos:R:3:forces_eV_per_au:R:3:forces:R:3 closest_conformer=twist-boat color="_JSON [0.45961506808884794, 0.7546457232156316, 0.3489597163961095, 0.9960688574625974]" relative_energy_eV=0.5140724298821624 energy=-1123.5280421156497 free_energy=-1123.5280421156497 pbc="T T T"
C        6.53973571       4.98864399       4.98102470       0.22581896       0.42047153      -1.04192901       0.22581896       0.42047153      -1.04192901
C        5.63583917       6.18687077       5.37089713       0.27334786       0.82827960       0.44017029       0.27334786       0.82827960       0.44017029
C        4.28345056       6.25659149       4.61603399       0.83984776      -0.42961360      -0.35502898       0.83984776      -0.42961360      -0.35502898
C        3.47783835       5.01527517       4.98423872      -1.64388623       0.41236432       1.27312724      -1.64388623       0.41236432       1.27312724
C        4.30052295       3.82089809       5.38078690       2.13566524      -1.42419986       0.09605847       2.13566524      -1.42419986       0.09605847
C        5.67031375       3.74278251       4.61911691       0.71504436       0.50194799       0.91998828       0.71504436       0.50194799       0.91998828
H        7.27166095       4.70115230       5.75566638      -0.23886962       0.35039097       0.15201776      -0.23886962       0.35039097       0.15201776
H        7.17961558       5.29030672       4.08155858      -0.67246406      -0.32616372       0.84177455      -0.67246406      -0.32616372       0.84177455
H        6.16009588       7.15168445       5.21920700       0.09479889      -0.28098944       0.03596073       0.09479889      -0.28098944       0.03596073
H        5.38990149       6.18191394       6.46996246       0.17853997      -0.15287008      -0.62575612       0.17853997      -0.15287008      -0.62575612
H        4.38552729       6.20880820       3.50415985       0.43252332       0.35394449       0.45987471       0.43252332       0.35394449       0.45987471
H        3.82950701       7.22824580       4.85929625      -0.35109982      -0.25370309      -0.02176336      -0.35109982      -0.25370309      -0.02176336
H        2.79063904       4.76330705       4.18948753      -0.24770933      -0.24603015      -0.66121163      -0.24770933      -0.24603015      -0.66121163
H        2.77885433       5.20101999       5.83875118       0.32625731       0.22878833      -0.25606516       0.32625731       0.22878833      -0.25606516
H        3.80998373       2.85536838       5.18798272      -0.39014536       0.17672915       0.17351167      -0.39014536       0.17672915       0.17351167
H        4.61284379       3.80990577       6.46878275      -0.58182959       0.15950944      -0.71576015      -0.58182959       0.15950944      -0.71576015
H        6.28394602       2.87302987       4.93405617      -0.58266623      -0.05692731      -0.21015709      -0.58266623      -0.05692731      -0.21015709
H        5.59972279       3.72419390       3.53898917      -0.51317342      -0.26192933      -0.50481219      -0.51317342      -0.26192933      -0.50481219
18
Lattice="9.99999982150825 0.0 0.0 0.0 9.99999982150825 0.0 0.0 0.0 9.99999982150825" Properties=species:S:1:pos:R:3:forces_eV_per_au:R:3:forces:R:3 closest_conformer=twist-boat color="_JSON [0.45893736389054884, 0.7566149116346965, 0.34897621252320393, 0.9995807417911233]" relative_energy_eV=0.5708042195910821 energy=-1123.4713103259407 free_energy=-1123.4713103259407 pbc="T T T"
C        6.55115730       5.04336563       4.95770199      -0.60746426      -1.80983911       0.00603386      -0.60746426      -1.80983911       0.00603386
C        5.64980738       6.18194393       5.37735471      -0.01782777       1.38079733       0.14090082      -0.01782777       1.38079733       0.14090082
C        4.28934469       6.26055325       4.63334990       0.86799311      -0.75456376      -0.15933023       0.86799311      -0.75456376      -0.15933023
C        3.45486089       5.04052963       5.00090815      -0.56424273      -1.11760892      -0.37207231      -0.56424273      -1.11760892      -0.37207231
C        4.30837034       3.82875533       5.37888375       1.38326687      -1.37698361       0.85713380       1.38326687      -1.37698361       0.85713380
C        5.63550592       3.75515268       4.62347236       2.00222422       0.19622994      -0.66157827       2.00222422       0.19622994      -0.66157827
H        7.25107239       4.69896538       5.76297147      -0.25341024       0.65424754      -0.43533379      -0.25341024       0.65424754      -0.43533379
H        7.12245509       5.29491727       4.04492305       0.02613141      -0.00743075       0.31770685       0.02613141      -0.00743075       0.31770685
H        6.18996542       7.12560290       5.24057338       0.06605370       0.25009892      -0.12539424       0.06605370       0.25009892      -0.12539424
H        5.44016536       6.18869799       6.45565809      -0.04019740      -0.31038152       0.12671373      -0.04019740      -0.31038152       0.12671373
H        4.44311003       6.23104421       3.53498990       0.12412129       0.22528803       0.26316655       0.12412129       0.22528803       0.26316655
H        3.80356436       7.19058809       4.87886466      -0.38330134       0.53854892       0.07866239      -0.38330134       0.53854892       0.07866239
H        2.79146577       4.73686523       4.16154036       0.27817356       0.16666559       0.06749172       0.27817356       0.16666559       0.06749172
H        2.76754846       5.13452664       5.82810316      -0.40590546       0.76939774       0.56701309      -0.40590546       0.76939774       0.56701309
H        3.75936694       2.86764517       5.24814231       0.03851204       0.46665137       0.07786046       0.03851204       0.46665137       0.07786046
H        4.68904749       3.80699727       6.46638758      -1.00124439       0.32516973      -0.93415403      -1.00124439       0.32516973      -0.93415403
H        6.29006415       2.85946811       4.89730342      -1.06634318       0.66620368      -0.27943726      -1.06634318       0.66620368      -0.27943726
H        5.56312641       3.75437968       3.50887014      -0.44653943      -0.26249086       0.46461685      -0.44653943      -0.26249086       0.46461685
18
Lattice="9.99999982150825 0.0 0.0 0.0 9.99999982150825 0.0 0.0 0.0 9.99999982150825" Properties=species:S:1:pos:R:3:forces_eV_per_au:R:3:forces:R:3 closest_conformer=twist-boat color="_JSON [0.4588849959881595, 0.7567470662339708, 0.3489872888749622, 0.9998109438582241]" relative_energy_eV=0.4223492495464143 energy=-1123.6197652959854 free_energy=-1123.6197652959854 pbc="T T T"
C        6.55056498       5.00847992       4.95089670      -0.87905580      -1.13452318       0.35481172      -0.87905580      -1.13452318       0.35481172
C        5.67923618       6.17679847       5.36108989      -0.21105800       1.30516190       0.36412606      -0.21105800       1.30516190       0.36412606
C        4.31291705       6.24431616       4.65401970       0.56219639       0.41911270      -1.20136904       0.56219639       0.41911270      -1.20136904
C        3.45570217       5.06658189       5.00338205       0.04435564      -1.77411389       0.23798697       0.04435564      -1.77411389       0.23798697
C        4.33095369       3.82122605       5.36269546      -0.66843694      -0.48814759       0.43426524      -0.66843694      -0.48814759       0.43426524
C        5.63859019       3.74470396       4.63999377       1.39005947       0.87395447      -0.60563363       1.39005947       0.87395447      -0.60563363
H        7.22617553       4.79005014       5.80379485      -0.02654253      -0.11214355      -0.38924779      -0.02654253      -0.11214355      -0.38924779
H        7.15450898       5.23682540       4.07238797       0.18326052       0.13429566      -0.14713575       0.18326052       0.13429566      -0.14713575
H        6.28262867       7.08098414       5.17531219      -0.33160752       0.22494042       0.11934701      -0.33160752       0.22494042       0.11934701
H        5.44958229       6.17954256       6.45251269       0.32595109      -0.13040301      -0.30207377       0.32595109      -0.13040301      -0.30207377
H        4.44379438       6.16632529       3.54059732       0.20687790       0.51411393       0.56361435       0.20687790       0.51411393       0.56361435
H        3.77877016       7.18076100       4.87262606       0.19317701       0.08125149      -0.11358902       0.19317701       0.08125149      -0.11358902
H        2.83181027       4.77762077       4.14400924      -0.20645264       0.16831547       0.11236312      -0.20645264       0.16831547       0.11236312
H        2.81124983       5.22596625       5.86749871      -0.32492856       0.26827507       0.12788307      -0.32492856       0.26827507       0.12788307
H        3.74287403       2.89515892       5.22233015       0.05811002       0.15072321      -0.03672409       0.05811002       0.15072321      -0.03672409
H        4.57804103       3.83820675       6.42066691      -0.12585601       0.08918694       0.61636362      -0.12585601       0.08918694       0.61636362
H        6.27320114       2.90033988       4.89176425      -0.23775531      -0.69250632       0.20656783      -0.23775531      -0.69250632       0.20656783
H        5.45939782       3.66611083       3.56442047       0.04770528       0.10250628      -0.34155511       0.04770528       0.10250628      -0.34155511
18
Lattice="9.99999982150825 0.0 0.0 0.0 9.99999982150825 0.0 0.0 0.0 9.99999982150825" Properties=species:S:1:pos:R:3:forces_eV_per_au:R:3:forces:R:3 closest_conformer=twist-boat color="_JSON [0.4589577404224651, 0.7566034029420775, 0.3489523512830133, 0.9995732915017872]" relative_energy_eV=0.4821745654303413 energy=-1123.5599399801015 free_energy=-1123.5599399801015 pbc="T T T"
C        6.56325633       5.02261791       4.93933653      -1.77475101      -1.24594939       0.92385444      -1.77475101      -1.24594939       0.92385444
C        5.67796587       6.19514278       5.35555409      -0.20118677       0.50495155       0.49936274      -0.20118677       0.50495155       0.49936274
C        4.30931505       6.25346543       4.64972299       0.11456579       0.51450345      -0.90020210       0.11456579       0.51450345      -0.90020210
C        3.42748151       5.06261907       4.99971548       0.51561340      -1.75093899      -0.30766180       0.51561340      -1.75093899      -0.30766180
C        4.32634073       3.80960592       5.36902394      -0.50802119       0.29434889       0.40004360      -0.50802119       0.29434889       0.40004360